 Entering Gaussian System, Link 0=g09
 Initial command:
 /apps/gaussian/g09_d01/g09/l1.exe "/rds/general/user/fdp18/home/gaussian/padua/BCN4/Gau-2229047.inp" -scrdir="/rds/general/user/fdp18/home/gaussian/padua/BCN4/"
 Entering Link 1 = /apps/gaussian/g09_d01/g09/l1.exe PID=   2229048.
  
 Copyright (c) 1988,1990,1992,1993,1995,1998,2003,2009,2013,
            Gaussian, Inc.  All Rights Reserved.
  
 This is part of the Gaussian(R) 09 program.  It is based on
 the Gaussian(R) 03 system (copyright 2003, Gaussian, Inc.),
 the Gaussian(R) 98 system (copyright 1998, Gaussian, Inc.),
 the Gaussian(R) 94 system (copyright 1995, Gaussian, Inc.),
 the Gaussian 92(TM) system (copyright 1992, Gaussian, Inc.),
 the Gaussian 90(TM) system (copyright 1990, Gaussian, Inc.),
 the Gaussian 88(TM) system (copyright 1988, Gaussian, Inc.),
 the Gaussian 86(TM) system (copyright 1986, Carnegie Mellon
 University), and the Gaussian 82(TM) system (copyright 1983,
 Carnegie Mellon University). Gaussian is a federally registered
 trademark of Gaussian, Inc.
  
 This software contains proprietary and confidential information,
 including trade secrets, belonging to Gaussian, Inc.
  
 This software is provided under written license and may be
 used, copied, transmitted, or stored only in accord with that
 written license.
  
 The following legend is applicable only to US Government
 contracts under FAR:
  
                    RESTRICTED RIGHTS LEGEND
  
 Use, reproduction and disclosure by the US Government is
 subject to restrictions as set forth in subparagraphs (a)
 and (c) of the Commercial Computer Software - Restricted
 Rights clause in FAR 52.227-19.
  
 Gaussian, Inc.
 340 Quinnipiac St., Bldg. 40, Wallingford CT 06492
  
  
 ---------------------------------------------------------------
 Warning -- This program may not be used in any manner that
 competes with the business of Gaussian, Inc. or will provide
 assistance to any competitor of Gaussian, Inc.  The licensee
 of this program is prohibited from giving any competitor of
 Gaussian, Inc. access to this program.  By using this program,
 the user acknowledges that Gaussian, Inc. is engaged in the
 business of creating and licensing software in the field of
 computational chemistry and represents and warrants to the
 licensee that it is not a competitor of Gaussian, Inc. and that
 it will not use this program in any manner prohibited above.
 ---------------------------------------------------------------
  

 Cite this work as:
 Gaussian 09, Revision D.01,
 M. J. Frisch, G. W. Trucks, H. B. Schlegel, G. E. Scuseria, 
 M. A. Robb, J. R. Cheeseman, G. Scalmani, V. Barone, B. Mennucci, 
 G. A. Petersson, H. Nakatsuji, M. Caricato, X. Li, H. P. Hratchian, 
 A. F. Izmaylov, J. Bloino, G. Zheng, J. L. Sonnenberg, M. Hada, 
 M. Ehara, K. Toyota, R. Fukuda, J. Hasegawa, M. Ishida, T. Nakajima, 
 Y. Honda, O. Kitao, H. Nakai, T. Vreven, J. A. Montgomery, Jr., 
 J. E. Peralta, F. Ogliaro, M. Bearpark, J. J. Heyd, E. Brothers, 
 K. N. Kudin, V. N. Staroverov, T. Keith, R. Kobayashi, J. Normand, 
 K. Raghavachari, A. Rendell, J. C. Burant, S. S. Iyengar, J. Tomasi, 
 M. Cossi, N. Rega, J. M. Millam, M. Klene, J. E. Knox, J. B. Cross, 
 V. Bakken, C. Adamo, J. Jaramillo, R. Gomperts, R. E. Stratmann, 
 O. Yazyev, A. J. Austin, R. Cammi, C. Pomelli, J. W. Ochterski, 
 R. L. Martin, K. Morokuma, V. G. Zakrzewski, G. A. Voth, 
 P. Salvador, J. J. Dannenberg, S. Dapprich, A. D. Daniels, 
 O. Farkas, J. B. Foresman, J. V. Ortiz, J. Cioslowski, 
 and D. J. Fox, Gaussian, Inc., Wallingford CT, 2013.
 
 ******************************************
 Gaussian 09:  ES64L-G09RevD.01 24-Apr-2013
                18-Jan-2021 
 ******************************************
 %nprocshared=24
 Will use up to   24 processors via shared memory.
 %mem=80GB
 %chk=BCN4_MP2.chk
 ----------------------------------------------------------------------
 # mp2=(full,semidirect)/cc-pvtz pop=(minimal,chelpg,dipole) density=mp
 2 int=ultrafine scf=conver=10 symmetry=none
 ----------------------------------------------------------------------
 1/30=1,38=1/1;
 2/12=2,15=3,17=6,18=5,40=1/2;
 3/5=16,6=1,11=9,16=1,25=1,30=1,71=1,75=-5/1,2,3;
 4//1;
 5/5=2,6=10,38=5/2;
 8/6=4,10=90/1;
 9/15=1,16=-2/6;
 10/5=1,13=10,31=1/2;
 6/7=2,8=2,9=2,10=2,15=24,20=3,22=2/1,2;
 99/5=1,9=1/99;
 ----
 BCN4
 ----
 Symbolic Z-matrix:
 Charge = -1 Multiplicity = 1
 B                     0.        0.        0. 
 C                     0.91938   0.91938   0.91938 
 N                     1.58633   1.58633   1.58633 
 C                    -0.91938  -0.91938   0.91938 
 N                    -1.58633  -1.58633   1.58633 
 C                     0.91938  -0.91938  -0.91938 
 N                     1.58633  -1.58633  -1.58633 
 C                    -0.91938   0.91938  -0.91938 
 N                    -1.58633   1.58633  -1.58633 
 
                          Input orientation:                          
 ---------------------------------------------------------------------
 Center     Atomic      Atomic             Coordinates (Angstroms)
 Number     Number       Type             X           Y           Z
 ---------------------------------------------------------------------
      1          5           0        0.000000    0.000000    0.000000
      2          6           0        0.919383    0.919383    0.919383
      3          7           0        1.586332    1.586332    1.586332
      4          6           0       -0.919383   -0.919383    0.919383
      5          7           0       -1.586332   -1.586332    1.586332
      6          6           0        0.919383   -0.919383   -0.919383
      7          7           0        1.586332   -1.586332   -1.586332
      8          6           0       -0.919383    0.919383   -0.919383
      9          7           0       -1.586332    1.586332   -1.586332
 ---------------------------------------------------------------------
                    Distance matrix (angstroms):
                    1          2          3          4          5
     1  B    0.000000
     2  C    1.592418   0.000000
     3  N    2.747608   1.155190   0.000000
     4  C    1.592418   2.600408   3.605834   0.000000
     5  N    2.747608   3.605834   4.486824   1.155190   0.000000
     6  C    1.592418   2.600408   3.605834   2.600408   3.605834
     7  N    2.747608   3.605834   4.486824   3.605834   4.486824
     8  C    1.592418   2.600408   3.605834   2.600408   3.605834
     9  N    2.747608   3.605834   4.486824   3.605834   4.486824
                    6          7          8          9
     6  C    0.000000
     7  N    1.155190   0.000000
     8  C    2.600408   3.605834   0.000000
     9  N    3.605834   4.486824   1.155190   0.000000
 Symmetry turned off by external request.
 Stoichiometry    C4BN4
 Rotational constants (GHZ):      1.3920383      1.3920383      1.3920383
 Standard basis: CC-pVTZ (5D, 7F)
   270 basis functions,   468 primitive gaussians,   315 cartesian basis functions
    29 alpha electrons       29 beta electrons
       nuclear repulsion energy       296.3941511393 Hartrees.
 NAtoms=    9 NActive=    9 NUniq=    9 SFac= 1.00D+00 NAtFMM=   60 NAOKFM=F Big=F
 Integral buffers will be    131072 words long.
 Raffenetti 1 integral format.
 Two-electron integral symmetry is turned off.
 One-electron integrals computed using PRISM.
 GSVD:  received Info=                   1 from GESDD.
 NBasis=   270 RedAO= T EigKep=  3.26D-04  NBF=   270
 NBsUse=   270 1.00D-06 EigRej= -1.00D+00 NBFU=   270
 ExpMin= 7.70D-02 ExpMax= 1.14D+04 ExpMxC= 3.89D+02 IAcc=3 IRadAn=         5 AccDes= 0.00D+00
 Harris functional with IExCor=  205 and IRadAn=       5 diagonalized for initial guess.
 HarFok:  IExCor=  205 AccDes= 0.00D+00 IRadAn=         5 IDoV= 1 UseB2=F ITyADJ=14
 ICtDFT=  3500011 ScaDFX=  1.000000  1.000000  1.000000  1.000000
 FoFCou: FMM=F IPFlag=           0 FMFlag=      100000 FMFlg1=           0
         NFxFlg=           0 DoJE=T BraDBF=F KetDBF=T FulRan=T
         wScrn=  0.000000 ICntrl=     500 IOpCl=  0 I1Cent=   200000004 NGrid=           0
         NMat0=    1 NMatS0=      1 NMatT0=    0 NMatD0=    1 NMtDS0=    0 NMtDT0=    0
 Symmetry not used in FoFCou.
 Keep R1 ints in memory in canonical form, NReq=685352188.
 Requested convergence on RMS density matrix=1.00D-10 within 128 cycles.
 Requested convergence on MAX density matrix=1.00D-08.
 Requested convergence on             energy=1.00D-08.
 No special actions if energy rises.
 DSYEVD-2 returned Info=       55283 IAlg= 4 N=   270 NDim=   270 NE2=    37287937 trying  DSYEV.
 DSYEVD-2 returned Info=         406 IAlg= 4 N=   270 NDim=   270 NE2=    37287937 trying  DSYEV.
 DSYEVD-2 returned Info=       37126 IAlg= 4 N=   270 NDim=   270 NE2=    37287937 trying  DSYEV.
 DSYEVD-2 returned Info=         406 IAlg= 4 N=   270 NDim=   270 NE2=    37287937 trying  DSYEV.
 DSYEVD-2 returned Info=       37126 IAlg= 4 N=   270 NDim=   270 NE2=    37287937 trying  DSYEV.
 DSYEVD-2 returned Info=         406 IAlg= 4 N=   270 NDim=   270 NE2=    37287937 trying  DSYEV.
 DSYEVD-2 returned Info=         406 IAlg= 4 N=   270 NDim=   270 NE2=    37287937 trying  DSYEV.
 DSYEVD-2 returned Info=         406 IAlg= 4 N=   270 NDim=   270 NE2=    37287937 trying  DSYEV.
 SCF Done:  E(RHF) =  -394.217623964     A.U. after   13 cycles
            NFock= 13  Conv=0.30D-10     -V/T= 2.0015
 Range of M.O.s used for correlation:     1   270
 NBasis=   270 NAE=    29 NBE=    29 NFC=     0 NFV=     0
 NROrb=    270 NOA=    29 NOB=    29 NVA=   241 NVB=   241

 **** Warning!!: The largest alpha MO coefficient is  0.21801456D+02

 Disk-based method using ON**2 memory for 29 occupieds at a time.
 Estimated scratch disk usage=  1620215840 words.
 Actual    scratch disk usage=  1504872480 words.
 JobTyp=1 Pass  1:  I=   1 to  29 NPSUse= 24 ParTrn=T ParDer=T DoDerP=T.
 (rs|ai) integrals will be sorted in core.
 Spin components of T(2) and E(2):
     alpha-alpha T2 =       0.6950473843D-01 E2=     -0.1982165016D+00
     alpha-beta  T2 =       0.3723646570D+00 E2=     -0.1174631693D+01
     beta-beta   T2 =       0.6950473843D-01 E2=     -0.1982165016D+00
 ANorm=    0.1229379573D+01
 E2 =    -0.1571064696D+01 EUMP2 =    -0.39578868866012D+03
          Differentiating once with respect to electric field.
                with respect to dipole field.
          Electric field/nuclear overlap derivatives assumed to be zero.
 Keep R1 ints in memory in canonical form, NReq=685028364.
          There are     1 degrees of freedom in the 1st order CPHF.  IDoFFX=0 NUNeed=     1.
 LinEq1:  Iter=  0 NonCon=     1 RMS=3.93D-03 Max=6.49D-02 NDo=     1
 AX will form     1 AO Fock derivatives at one time.
 LinEq1:  Iter=  1 NonCon=     1 RMS=1.16D-03 Max=2.25D-02 NDo=     1
 LinEq1:  Iter=  2 NonCon=     1 RMS=4.82D-04 Max=9.04D-03 NDo=     1
 LinEq1:  Iter=  3 NonCon=     1 RMS=1.88D-04 Max=3.92D-03 NDo=     1
 LinEq1:  Iter=  4 NonCon=     1 RMS=2.98D-05 Max=3.72D-04 NDo=     1
 LinEq1:  Iter=  5 NonCon=     1 RMS=5.94D-06 Max=8.78D-05 NDo=     1
 LinEq1:  Iter=  6 NonCon=     1 RMS=1.42D-06 Max=2.11D-05 NDo=     1
 LinEq1:  Iter=  7 NonCon=     1 RMS=1.86D-07 Max=3.44D-06 NDo=     1
 LinEq1:  Iter=  8 NonCon=     1 RMS=2.41D-08 Max=4.36D-07 NDo=     1
 LinEq1:  Iter=  9 NonCon=     1 RMS=2.02D-09 Max=3.81D-08 NDo=     1
 LinEq1:  Iter= 10 NonCon=     1 RMS=2.08D-10 Max=6.02D-09 NDo=     1
 LinEq1:  Iter= 11 NonCon=     0 RMS=2.05D-11 Max=2.44D-10 NDo=     1
 Linear equations converged to 1.000D-10 1.000D-09 after    11 iterations.
 End of Minotr F.D. properties file   721 does not exist.
 End of Minotr F.D. properties file   722 does not exist.
 End of Minotr F.D. properties file   788 does not exist.

 **********************************************************************

            Population analysis using the MP2 density.

 **********************************************************************

 Alpha  occ. eigenvalues --  -15.44261 -15.44261 -15.44261 -15.44261 -11.13025
 Alpha  occ. eigenvalues --  -11.13025 -11.13025 -11.13025  -7.53438  -1.09321
 Alpha  occ. eigenvalues --   -1.08549  -1.08549  -1.08549  -0.78543  -0.56257
 Alpha  occ. eigenvalues --   -0.56257  -0.56257  -0.44282  -0.43034  -0.43034
 Alpha  occ. eigenvalues --   -0.43034  -0.36223  -0.36223  -0.34117  -0.34117
 Alpha  occ. eigenvalues --   -0.34117  -0.33372  -0.33372  -0.33372
 Alpha virt. eigenvalues --    0.27295   0.27295   0.27295   0.28844   0.29865
 Alpha virt. eigenvalues --    0.29865   0.34817   0.34817   0.34817   0.42067
 Alpha virt. eigenvalues --    0.42067   0.42067   0.49037   0.49037   0.49037
 Alpha virt. eigenvalues --    0.53863   0.53863   0.59035   0.64541   0.64541
 Alpha virt. eigenvalues --    0.64541   0.64718   0.70601   0.70601   0.70601
 Alpha virt. eigenvalues --    0.72789   0.72789   0.72789   0.77856   0.77856
 Alpha virt. eigenvalues --    0.77856   0.81446   0.82727   0.82727   0.82727
 Alpha virt. eigenvalues --    0.88234   0.88234   0.89080   0.89080   0.89080
 Alpha virt. eigenvalues --    0.93187   0.93187   0.93187   0.94545   0.94545
 Alpha virt. eigenvalues --    0.96211   0.96211   0.96211   0.99169   1.08044
 Alpha virt. eigenvalues --    1.08044   1.08044   1.14973   1.14973   1.28061
 Alpha virt. eigenvalues --    1.28061   1.28061   1.29510   1.31488   1.31488
 Alpha virt. eigenvalues --    1.31488   1.39966   1.44098   1.44098   1.44098
 Alpha virt. eigenvalues --    1.50284   1.50284   1.50284   1.57576   1.57576
 Alpha virt. eigenvalues --    1.58042   1.58042   1.58042   1.67041   1.67041
 Alpha virt. eigenvalues --    1.70056   1.70056   1.70056   1.80112   1.80112
 Alpha virt. eigenvalues --    1.80112   1.86471   1.86471   1.86471   1.91011
 Alpha virt. eigenvalues --    1.91011   2.09805   2.09805   2.09805   2.13264
 Alpha virt. eigenvalues --    2.13264   2.13264   2.16302   2.27193   2.27193
 Alpha virt. eigenvalues --    2.27193   2.32902   2.37080   2.37080   2.37080
 Alpha virt. eigenvalues --    2.46635   2.46635   2.50023   2.50023   2.50023
 Alpha virt. eigenvalues --    2.65856   2.65856   2.65856   2.80786   2.80786
 Alpha virt. eigenvalues --    2.80786   2.84301   2.84301   2.84301   2.88347
 Alpha virt. eigenvalues --    2.89106   2.89106   2.89106   3.00970   3.00970
 Alpha virt. eigenvalues --    3.07568   3.08440   3.08440   3.08440   3.09154
 Alpha virt. eigenvalues --    3.09154   3.09154   3.10103   3.14880   3.14880
 Alpha virt. eigenvalues --    3.14880   3.26047   3.26047   3.26047   3.26970
 Alpha virt. eigenvalues --    3.41989   3.41989   3.46420   3.46420   3.46420
 Alpha virt. eigenvalues --    3.48600   3.48600   3.49464   3.49464   3.49464
 Alpha virt. eigenvalues --    3.55350   3.55350   3.61000   3.61000   3.61000
 Alpha virt. eigenvalues --    3.75557   3.75557   3.75557   3.75683   3.75683
 Alpha virt. eigenvalues --    3.75683   3.82829   3.90609   3.90609   3.90609
 Alpha virt. eigenvalues --    4.01052   4.01052   4.02545   4.02545   4.02545
 Alpha virt. eigenvalues --    4.03396   4.03396   4.03396   4.08682   4.29046
 Alpha virt. eigenvalues --    4.29046   4.29046   4.32102   4.32102   4.32102
 Alpha virt. eigenvalues --    4.34087   4.34087   4.37941   4.37941   4.37941
 Alpha virt. eigenvalues --    4.47048   4.47492   4.47492   4.47492   4.47788
 Alpha virt. eigenvalues --    4.48471   4.48471   4.48471   4.88394   4.95127
 Alpha virt. eigenvalues --    4.95127   4.95127   5.03504   5.03504   5.09065
 Alpha virt. eigenvalues --    5.09065   5.09065   5.13259   5.13259   5.13259
 Alpha virt. eigenvalues --    5.14554   5.14554   5.16792   5.16792   5.16792
 Alpha virt. eigenvalues --    5.25276   5.25276   5.25276   5.53700   5.53700
 Alpha virt. eigenvalues --    5.60236   5.60236   5.60236   5.67286   5.67286
 Alpha virt. eigenvalues --    5.67286   6.02401   6.19591   6.19591   6.19591
 Alpha virt. eigenvalues --    6.37193   6.37193   6.37193   6.40820   6.42906
 Alpha virt. eigenvalues --    6.42906   6.42906   6.57200   6.57200   6.59978
 Alpha virt. eigenvalues --    6.59978   6.59978   7.47230   8.68959   8.68959
 Alpha virt. eigenvalues --    8.68959  12.27399  16.34351  16.34351  16.34351
 Alpha virt. eigenvalues --   16.59345
          Condensed to atoms (all electrons):
               1          2          3          4          5          6
     1  B    3.653132   0.297942  -0.010329   0.297942  -0.010329   0.297942
     2  C    0.297942   5.204251   0.843052  -0.053233  -0.002454  -0.053233
     3  N   -0.010329   0.843052   6.295166  -0.002454   0.000132  -0.002454
     4  C    0.297942  -0.053233  -0.002454   5.204251   0.843052  -0.053233
     5  N   -0.010329  -0.002454   0.000132   0.843052   6.295166  -0.002454
     6  C    0.297942  -0.053233  -0.002454  -0.053233  -0.002454   5.204251
     7  N   -0.010329  -0.002454   0.000132  -0.002454   0.000132   0.843052
     8  C    0.297942  -0.053233  -0.002454  -0.053233  -0.002454  -0.053233
     9  N   -0.010329  -0.002454   0.000132  -0.002454   0.000132  -0.002454
               7          8          9
     1  B   -0.010329   0.297942  -0.010329
     2  C   -0.002454  -0.053233  -0.002454
     3  N    0.000132  -0.002454   0.000132
     4  C   -0.002454  -0.053233  -0.002454
     5  N    0.000132  -0.002454   0.000132
     6  C    0.843052  -0.053233  -0.002454
     7  N    6.295166  -0.002454   0.000132
     8  C   -0.002454   5.204251   0.843052
     9  N    0.000132   0.843052   6.295166
 Mulliken charges:
               1
     1  B    0.196416
     2  C   -0.178181
     3  N   -0.120923
     4  C   -0.178181
     5  N   -0.120923
     6  C   -0.178181
     7  N   -0.120923
     8  C   -0.178181
     9  N   -0.120923
 Sum of Mulliken charges =  -1.00000
 Mulliken charges with hydrogens summed into heavy atoms:
               1
     1  B    0.196416
     2  C   -0.178181
     3  N   -0.120923
     4  C   -0.178181
     5  N   -0.120923
     6  C   -0.178181
     7  N   -0.120923
     8  C   -0.178181
     9  N   -0.120923
 Electronic spatial extent (au):  <R**2>=           1128.5483
 Charge=             -1.0000 electrons
 Dipole moment (field-independent basis, Debye):
    X=              0.0000    Y=              0.0000    Z=              0.0000  Tot=              0.0000
 Quadrupole moment (field-independent basis, Debye-Ang):
   XX=            -70.1026   YY=            -70.1026   ZZ=            -70.1026
   XY=              0.0000   XZ=              0.0000   YZ=              0.0000
 Traceless Quadrupole moment (field-independent basis, Debye-Ang):
   XX=              0.0000   YY=              0.0000   ZZ=              0.0000
   XY=              0.0000   XZ=              0.0000   YZ=              0.0000
 Octapole moment (field-independent basis, Debye-Ang**2):
  XXX=              0.0000  YYY=              0.0000  ZZZ=              0.0000  XYY=              0.0000
  XXY=              0.0000  XXZ=              0.0000  XZZ=              0.0000  YZZ=              0.0000
  YYZ=              0.0000  XYZ=            -36.0623
 Hexadecapole moment (field-independent basis, Debye-Ang**3):
 XXXX=           -594.5049 YYYY=           -594.5049 ZZZZ=           -594.5049 XXXY=              0.0000
 XXXZ=              0.0000 YYYX=              0.0000 YYYZ=              0.0000 ZZZX=              0.0000
 ZZZY=              0.0000 XXYY=           -241.4173 XXZZ=           -241.4173 YYZZ=           -241.4173
 XXYZ=              0.0000 YYXZ=              0.0000 ZZXY=              0.0000
 N-N= 2.963941511393D+02 E-N=-1.526703651836D+03  KE= 3.955026911876D+02
 Breneman (CHELPG) radii used.
 Generate Potential Derived Charges using the Breneman model, NDens= 1.
 Grid spacing= 0.300 Box extension= 2.800
 NStep X,Y,Z=   31     31     31   Total possible points=       29791
 Number of Points to Fit=    8996

 **********************************************************************

          Electrostatic Properties Using The MP2 Density

 **********************************************************************

       Atomic Center    1 is at   0.000000  0.000000  0.000000
       Atomic Center    2 is at   0.919383  0.919383  0.919383
       Atomic Center    3 is at   1.586332  1.586332  1.586332
       Atomic Center    4 is at  -0.919383 -0.919383  0.919383
       Atomic Center    5 is at  -1.586332 -1.586332  1.586332
       Atomic Center    6 is at   0.919383 -0.919383 -0.919383
       Atomic Center    7 is at   1.586332 -1.586332 -1.586332
       Atomic Center    8 is at  -0.919383  0.919383 -0.919383
       Atomic Center    9 is at  -1.586332  1.586332 -1.586332
    8996 points will be used for fitting atomic charges
 Fitting point charges to electrostatic potential
 The dipole moment will be constrained to the correct value
 Charges from ESP fit, RMS=   0.00325 RRMS=   0.02503:
 ESP charges:
               1
     1  B    0.036184
     2  C    0.251319
     3  N   -0.510365
     4  C    0.251319
     5  N   -0.510365
     6  C    0.251319
     7  N   -0.510365
     8  C    0.251319
     9  N   -0.510365
 Sum of ESP charges =  -1.00000
 ESP charges with hydrogens summed into heavy atoms:
               1
     1  B    0.036184
     2  C    0.251319
     3  N   -0.510365
     4  C    0.251319
     5  N   -0.510365
     6  C    0.251319
     7  N   -0.510365
     8  C    0.251319
     9  N   -0.510365
 Charge=  -1.00000 Dipole=     0.0000     0.0000     0.0000 Tot=     0.0000
 -----------------------------------------------------------------

              Electrostatic Properties (Atomic Units)

 -----------------------------------------------------------------
    Center     Electric         -------- Electric Field --------
               Potential          X             Y             Z
 -----------------------------------------------------------------
    1 Atom    -11.513826
    2 Atom    -14.891055
    3 Atom    -18.534319
    4 Atom    -14.891055
    5 Atom    -18.534319
    6 Atom    -14.891055
    7 Atom    -18.534319
    8 Atom    -14.891055
    9 Atom    -18.534319
 -----------------------------------------------------------------
 1\1\GINC-CX2-5-7-9\SP\RMP2-Full\CC-pVTZ\C4B1N4\FDP18\18-Jan-2021\0\\# 
 mp2=(full,semidirect)/cc-pvtz pop=(minimal,chelpg,dipole) density=mp2 
 int=ultrafine scf=conver=10 symmetry=none\\BCN4\\-1,1\B,0,0.,0.,0.\C,0
 ,0.919383,0.919383,0.919383\N,0,1.586332,1.586332,1.586332\C,0,-0.9193
 83,-0.919383,0.919383\N,0,-1.586332,-1.586332,1.586332\C,0,0.919383,-0
 .919383,-0.919383\N,0,1.586332,-1.586332,-1.586332\C,0,-0.919383,0.919
 383,-0.919383\N,0,-1.586332,1.586332,-1.586332\\Version=ES64L-G09RevD.
 01\HF=-394.217624\MP2=-395.7886887\RMSD=3.014e-11\Dipole=0.,0.,0.\Quad
 rupole=0.,0.,0.,0.,0.,0.\PG=Unknown\\@


 LET US LEARN TO DREAM, GENTLEMEN, THEN PERHAPS WE SHALL
 DISCOVER THE TRUTH;  BUT LET US BEWARE OF PUBLISHING
 OUR DREAMS ABROAD BEFORE THEY HAVE BEEN SCRUTINIZED
 BY OUR VIGILANT INTELLECT ... LET US ALWAYS ALLOW
 THE FRUIT TO HANG UNTIL IT IS RIPE.  UNRIPE FRUIT
 BRINGS EVEN THE GROWER BUT LITTLE PROFIT; IT DAMAGES
 THE HEALTH OF THOSE WHO CONSUME IT; IT ENDANGERS
 PARTICULARLY THE YOUTH WHO CANNOT YET DISTINGUISH
 BETWEEN RIPE AND UNRIPE FRUIT.

                                  -- KEKULE, 1890
 Job cpu time:       0 days  0 hours 30 minutes  8.7 seconds.
 File lengths (MBytes):  RWF=  11561 Int=      0 D2E=      0 Chk=      6 Scr=      2
 Normal termination of Gaussian 09 at Mon Jan 18 13:14:42 2021.
