 Entering Gaussian System, Link 0=g09
 Initial command:
 /apps/gaussian/g09_e01/g09/l1.exe "/rds/general/user/fdp18/home/gaussian/padua/forcefield_phosphonium/Gau-679904.inp" -scrdir="/rds/general/user/fdp18/home/gaussian/padua/forcefield_phosphonium/"
 Entering Link 1 = /apps/gaussian/g09_e01/g09/l1.exe PID=    679905.
  
 Copyright (c) 1988,1990,1992,1993,1995,1998,2003,2009,2015,
            Gaussian, Inc.  All Rights Reserved.
  
 This is part of the Gaussian(R) 09 program.  It is based on
 the Gaussian(R) 03 system (copyright 2003, Gaussian, Inc.),
 the Gaussian(R) 98 system (copyright 1998, Gaussian, Inc.),
 the Gaussian(R) 94 system (copyright 1995, Gaussian, Inc.),
 the Gaussian 92(TM) system (copyright 1992, Gaussian, Inc.),
 the Gaussian 90(TM) system (copyright 1990, Gaussian, Inc.),
 the Gaussian 88(TM) system (copyright 1988, Gaussian, Inc.),
 the Gaussian 86(TM) system (copyright 1986, Carnegie Mellon
 University), and the Gaussian 82(TM) system (copyright 1983,
 Carnegie Mellon University). Gaussian is a federally registered
 trademark of Gaussian, Inc.
  
 This software contains proprietary and confidential information,
 including trade secrets, belonging to Gaussian, Inc.
  
 This software is provided under written license and may be
 used, copied, transmitted, or stored only in accord with that
 written license.
  
 The following legend is applicable only to US Government
 contracts under FAR:
  
                    RESTRICTED RIGHTS LEGEND
  
 Use, reproduction and disclosure by the US Government is
 subject to restrictions as set forth in subparagraphs (a)
 and (c) of the Commercial Computer Software - Restricted
 Rights clause in FAR 52.227-19.
  
 Gaussian, Inc.
 340 Quinnipiac St., Bldg. 40, Wallingford CT 06492
  
  
 ---------------------------------------------------------------
 Warning -- This program may not be used in any manner that
 competes with the business of Gaussian, Inc. or will provide
 assistance to any competitor of Gaussian, Inc.  The licensee
 of this program is prohibited from giving any competitor of
 Gaussian, Inc. access to this program.  By using this program,
 the user acknowledges that Gaussian, Inc. is engaged in the
 business of creating and licensing software in the field of
 computational chemistry and represents and warrants to the
 licensee that it is not a competitor of Gaussian, Inc. and that
 it will not use this program in any manner prohibited above.
 ---------------------------------------------------------------
  

 Cite this work as:
 Gaussian 09, Revision E.01,
 M. J. Frisch, G. W. Trucks, H. B. Schlegel, G. E. Scuseria, 
 M. A. Robb, J. R. Cheeseman, G. Scalmani, V. Barone, B. Mennucci, 
 G. A. Petersson, H. Nakatsuji, M. Caricato, X. Li, H. P. Hratchian, 
 A. F. Izmaylov, J. Bloino, G. Zheng, J. L. Sonnenberg, M. Hada, 
 M. Ehara, K. Toyota, R. Fukuda, J. Hasegawa, M. Ishida, T. Nakajima, 
 Y. Honda, O. Kitao, H. Nakai, T. Vreven, J. A. Montgomery, Jr., 
 J. E. Peralta, F. Ogliaro, M. Bearpark, J. J. Heyd, E. Brothers, 
 K. N. Kudin, V. N. Staroverov, T. Keith, R. Kobayashi, J. Normand, 
 K. Raghavachari, A. Rendell, J. C. Burant, S. S. Iyengar, J. Tomasi, 
 M. Cossi, N. Rega, J. M. Millam, M. Klene, J. E. Knox, J. B. Cross, 
 V. Bakken, C. Adamo, J. Jaramillo, R. Gomperts, R. E. Stratmann, 
 O. Yazyev, A. J. Austin, R. Cammi, C. Pomelli, J. W. Ochterski, 
 R. L. Martin, K. Morokuma, V. G. Zakrzewski, G. A. Voth, 
 P. Salvador, J. J. Dannenberg, S. Dapprich, A. D. Daniels, 
 O. Farkas, J. B. Foresman, J. V. Ortiz, J. Cioslowski, 
 and D. J. Fox, Gaussian, Inc., Wallingford CT, 2013.
 
 ******************************************
 Gaussian 09:  ES64L-G09RevE.01 30-Nov-2015
                28-Nov-2020 
 ******************************************
 %nprocshared=48
 Will use up to   48 processors via shared memory.
 %mem=100GB
 %chk=P1112O2.chk
 ----------------------------------------------------------------------
 # freq rb3lyp/6-311+g(d,p) empiricaldispersion=gd3bj int=ultrafine scf
 =conver=10 symmetry=none
 ----------------------------------------------------------------------
 1/10=4,30=1,38=1/1,3;
 2/12=2,15=3,17=6,18=5,40=1/2;
 3/5=4,6=6,7=111,11=2,16=1,25=1,30=1,71=2,74=-5,75=-5,116=1,124=41,140=1/1,2,3;
 4//1;
 5/5=2,6=10,38=5,98=1/2;
 8/6=4,10=90,11=11/1;
 11/6=1,8=1,9=11,15=111,16=1,31=1/1,2,10;
 10/6=1,31=1/2;
 6/7=2,8=2,9=2,10=2,18=1,28=1/1;
 7/8=1,10=1,25=1,30=1/1,2,3,16;
 1/10=4,30=1/3;
 99//99;
 -------------------
 Title Card Required
 -------------------
 Symbolic Z-matrix:
 Charge =  1 Multiplicity = 1
 C                    -5.03641   0.13597  -0.16406 
 H                    -5.32963   1.18636  -0.20777 
 H                    -5.32888  -0.35502  -1.09388 
 C                    -2.78091   0.81739   1.60905 
 H                    -3.32479   0.36252   2.43899 
 H                    -1.70981   0.70675   1.78326 
 C                    -2.77935  -1.73768   0.13663 
 H                    -1.7086   -1.83213   0.32226 
 H                    -3.32473  -2.22851   0.94482 
 C                    -2.43013   0.81834  -1.3448 
 H                    -2.7784    1.85518  -1.3753 
 H                    -2.784     0.33083  -2.25822 
 C                    -0.89946   0.79434  -1.31266 
 H                    -0.52555  -0.24113  -1.30358 
 H                    -0.51987   1.29477  -0.40843 
 C                     0.94188   1.54264  -2.61001 
 H                     1.35358   0.52482  -2.63294 
 H                     1.36064   2.06003  -1.73655 
 C                     1.25573   2.28795  -3.88888 
 H                     0.84541   3.29903  -3.85806 
 H                     0.8381    1.76721  -4.75259 
 P                    -3.24578   0.00901   0.05824 
 O                    -0.48642   1.46644  -2.46828 
 H                    -3.02712   1.8796    1.55919 
 H                    -5.5486   -0.3446    0.67144 
 H                    -3.02292  -2.22698  -0.80817 
 H                     2.33782   2.35939  -4.02005 
 

 GradGradGradGradGradGradGradGradGradGradGradGradGradGradGradGradGradGrad
 Berny optimization.
 Initialization pass.
 Trust Radius=3.00D-01 FncErr=1.00D-07 GrdErr=1.00D-07
 Number of steps in this run=      2 maximum allowed number of steps=      2.
 GradGradGradGradGradGradGradGradGradGradGradGradGradGradGradGradGradGrad

                          Input orientation:                          
 ---------------------------------------------------------------------
 Center     Atomic      Atomic             Coordinates (Angstroms)
 Number     Number       Type             X           Y           Z
 ---------------------------------------------------------------------
      1          6           0       -5.036409    0.135972   -0.164056
      2          1           0       -5.329631    1.186356   -0.207767
      3          1           0       -5.328876   -0.355022   -1.093879
      4          6           0       -2.780912    0.817393    1.609053
      5          1           0       -3.324785    0.362518    2.438991
      6          1           0       -1.709807    0.706747    1.783260
      7          6           0       -2.779352   -1.737682    0.136630
      8          1           0       -1.708603   -1.832125    0.322264
      9          1           0       -3.324730   -2.228509    0.944818
     10          6           0       -2.430130    0.818340   -1.344805
     11          1           0       -2.778404    1.855177   -1.375301
     12          1           0       -2.783997    0.330826   -2.258224
     13          6           0       -0.899459    0.794337   -1.312663
     14          1           0       -0.525547   -0.241127   -1.303585
     15          1           0       -0.519872    1.294773   -0.408426
     16          6           0        0.941885    1.542637   -2.610010
     17          1           0        1.353582    0.524816   -2.632942
     18          1           0        1.360644    2.060027   -1.736545
     19          6           0        1.255727    2.287953   -3.888877
     20          1           0        0.845409    3.299027   -3.858062
     21          1           0        0.838101    1.767215   -4.752588
     22         15           0       -3.245780    0.009006    0.058239
     23          8           0       -0.486424    1.466437   -2.468283
     24          1           0       -3.027124    1.879596    1.559193
     25          1           0       -5.548604   -0.344600    0.671443
     26          1           0       -3.022915   -2.226983   -0.808171
     27          1           0        2.337815    2.359394   -4.020053
 ---------------------------------------------------------------------
                    Distance matrix (angstroms):
                    1          2          3          4          5
     1  C    0.000000
     2  H    1.091419   0.000000
     3  H    1.091413   1.777931   0.000000
     4  C    2.948815   3.151656   3.895191   0.000000
     5  H    3.123593   3.421030   4.124611   1.091562   0.000000
     6  H    3.896678   4.159007   4.743727   1.090806   1.776691
     7  C    2.948779   3.895193   3.150551   2.948972   3.163733
     8  H    3.896692   4.743839   4.158567   3.134584   3.450947
     9  H    3.122534   4.124243   3.418017   3.164564   2.990982
    10  C    2.941510   3.136143   3.137271   2.974613   3.914754
    11  H    3.085671   2.884305   3.386604   3.159646   4.132238
    12  H    3.081699   3.378839   2.881405   3.897766   4.728349
    13  C    4.343627   4.582673   4.581334   3.475172   4.488160
    14  H    4.667827   5.130083   4.809254   3.832831   4.712430
    15  H    4.669223   4.815164   5.130126   3.067640   4.104196
    16  C    6.610703   6.725297   6.724746   5.673243   6.714877
    17  H    6.861383   7.140339   6.913615   5.930781   6.902026
    18  H    6.862725   6.918110   7.141090   5.467143   6.501530
    19  C    7.622092   7.624370   7.625898   6.977408   8.045515
    20  H    7.631932   7.477911   7.688601   7.014133   8.103486
    21  H    7.630560   7.683340   7.478078   7.380372   8.427432
    22  P    1.808835   2.408183   2.408149   1.809590   2.408152
    23  O    5.270860   5.352105   5.353134   4.723410   5.775489
    24  H    3.169706   2.984002   4.162976   1.091504   1.778812
    25  H    1.091490   1.778985   1.778974   3.144751   2.927390
    26  H    3.170583   4.163209   2.983844   3.894838   4.164218
    27  H    8.613449   8.642874   8.643420   7.763116   8.818833
                    6          7          8          9         10
     6  H    0.000000
     7  C    3.135371   0.000000
     8  H    2.929230   1.090818   0.000000
     9  H    3.453505   1.091567   1.776672   0.000000
    10  C    3.211870   2.974870   3.213205   3.914840   0.000000
    11  H    3.526655   3.898021   4.197904   4.728416   1.094192
    12  H    4.198666   3.164501   3.534650   4.135464   1.094178
    13  C    3.201418   3.470672   3.197812   4.485060   1.531196
    14  H    3.439411   3.064886   2.564036   4.103709   2.179818
    15  H    2.562267   3.820748   3.424103   4.702342   2.180110
    16  C    5.199135   5.670284   5.197340   6.712850   3.673668
    17  H    5.377759   5.465397   4.864709   6.501367   4.007734
    18  H    4.862928   5.922073   5.367292   6.894490   4.008144
    19  C    6.593007   6.977986   6.595150   8.046342   4.713555
    20  H    6.713685   7.380033   7.094140   8.426825   4.816578
    21  H    7.094628   7.019595   6.722728   8.108971   4.816086
    22  P    2.412831   1.809591   2.412963   2.408056   1.813515
    23  O    4.488810   4.723289   4.490143   5.775627   2.336713
    24  H    1.777949   3.894839   4.128603   4.164439   3.148947
    25  H    4.132533   3.145705   4.132828   2.927364   3.891345
    26  H    4.128746   1.091507   1.777981   1.778783   3.148549
    27  H    7.265874   7.762051   7.266226   8.818346   5.680238
                   11         12         13         14         15
    11  H    0.000000
    12  H    1.761599   0.000000
    13  C    2.158642   2.158798   0.000000
    14  H    3.078148   2.517750   1.100945   0.000000
    15  H    2.519894   3.078507   1.100985   1.777732   0.000000
    16  C    3.932269   3.933756   2.373523   2.653661   2.654268
    17  H    4.519383   4.159039   2.625257   2.425899   3.008510
    18  H    4.159829   4.521099   2.624827   3.006740   2.426078
    19  C    4.772795   4.775850   3.675948   4.031491   4.031463
    20  H    4.623941   4.954017   3.974556   4.575759   4.216754
    21  H    4.949032   4.626517   3.974757   4.217653   4.575919
    22  P    2.383657   2.383865   2.828664   3.052343   3.049844
    23  O    2.568833   2.571494   1.399205   2.067324   2.067268
    24  H    2.945116   4.126799   3.735278   4.353257   3.240348
    25  H    4.086831   4.084385   5.181544   5.398383   5.398316
    26  H    4.128614   2.949936   3.727191   3.228917   4.339100
    27  H    5.781405   5.783778   4.501034   4.726600   4.726906
                   16         17         18         19         20
    16  C    0.000000
    17  H    1.098171   0.000000
    18  H    1.098177   1.777766   0.000000
    19  C    1.513107   2.166933   2.166907   0.000000
    20  H    2.156814   3.074964   2.510263   1.091595   0.000000
    21  H    2.156814   2.510413   3.074948   1.091594   1.773887
    22  P    5.196933   5.353751   5.352297   6.406004   6.549769
    23  O    1.437344   2.073495   2.073511   2.393337   2.657753
    24  H    5.766180   6.212890   5.490624   6.941976   6.808667
    25  H    7.513724   7.701624   7.701841   8.603823   8.641518
    26  H    5.759887   5.482327   6.201285   6.941338   7.402875
    27  H    2.145678   2.501693   2.501777   1.092349   1.770996
                   21         22         23         24         25
    21  H    0.000000
    22  P    6.550835   0.000000
    23  O    2.657609   4.015154   0.000000
    24  H    7.402106   2.408273   4.779793   0.000000
    25  H    8.641173   2.409160   6.226026   3.477500   0.000000
    26  H    6.813185   2.408316   4.778191   4.740087   3.480191
    27  H    1.770996   7.302967   3.343903   7.755047   9.566469
                   26         27
    26  H    0.000000
    27  H    7.751675   0.000000
 Symmetry turned off by external request.
 Stoichiometry    C7H18OP
 Rotational constants (GHZ):      2.9373819      0.4907915      0.4853565
 Standard basis: 6-311+G(d,p) (5D, 7F)
   314 basis functions,   482 primitive gaussians,   323 cartesian basis functions
    41 alpha electrons       41 beta electrons
       nuclear repulsion energy       578.3142877354 Hartrees.
 NAtoms=   27 NActive=   27 NUniq=   27 SFac= 1.00D+00 NAtFMM=   60 NAOKFM=F Big=F
 Integral buffers will be    131072 words long.
 Raffenetti 2 integral format.
 Two-electron integral symmetry is turned off.
 Nuclear repulsion after empirical dispersion term =      578.2720512540 Hartrees.
 One-electron integrals computed using PRISM.
 NBasis=   314 RedAO= T EigKep=  1.30D-05  NBF=   314
 NBsUse=   314 1.00D-06 EigRej= -1.00D+00 NBFU=   314
 ExpMin= 3.48D-02 ExpMax= 7.75D+04 ExpMxC= 2.65D+03 IAcc=3 IRadAn=         5 AccDes= 0.00D+00
 Harris functional with IExCor=  402 and IRadAn=       5 diagonalized for initial guess.
 HarFok:  IExCor=  402 AccDes= 0.00D+00 IRadAn=         5 IDoV= 1 UseB2=F ITyADJ=14
 ICtDFT=  3500011 ScaDFX=  1.000000  1.000000  1.000000  1.000000
 FoFCou: FMM=F IPFlag=           0 FMFlag=      100000 FMFlg1=           0
         NFxFlg=           0 DoJE=T BraDBF=F KetDBF=T FulRan=T
         wScrn=  0.000000 ICntrl=     500 IOpCl=  0 I1Cent=   200000004 NGrid=           0
         NMat0=    1 NMatS0=      1 NMatT0=    0 NMatD0=    1 NMtDS0=    0 NMtDT0=    0
 Symmetry not used in FoFCou.
 Keep R1 ints in memory in canonical form, NReq=1240278223.
 Requested convergence on RMS density matrix=1.00D-10 within 128 cycles.
 Requested convergence on MAX density matrix=1.00D-08.
 Requested convergence on             energy=1.00D-08.
 No special actions if energy rises.
 SCF Done:  E(RB3LYP) =  -694.126724978     A.U. after   15 cycles
            NFock= 15  Conv=0.74D-10     -V/T= 2.0032
 DoSCS=F DFT=T ScalE2(SS,OS)=  1.000000  1.000000
 Range of M.O.s used for correlation:     1   314
 NBasis=   314 NAE=    41 NBE=    41 NFC=     0 NFV=     0
 NROrb=    314 NOA=    41 NOB=    41 NVA=   273 NVB=   273

 **** Warning!!: The largest alpha MO coefficient is  0.92711182D+02

 Symmetrizing basis deriv contribution to polar:
 IMax=3 JMax=2 DiffMx= 0.00D+00
 G2DrvN: will do    28 centers at a time, making    1 passes.
 Calling FoFCou, ICntrl=  3107 FMM=F I1Cent=   0 AccDes= 0.00D+00.
 End of G2Drv F.D. properties file   721 does not exist.
 End of G2Drv F.D. properties file   722 does not exist.
 End of G2Drv F.D. properties file   788 does not exist.
          IDoAtm=111111111111111111111111111
          Differentiating once with respect to electric field.
                with respect to dipole field.
          Differentiating once with respect to nuclear coordinates.
 Keep R1 ints in memory in canonical form, NReq=1239940594.
          There are    84 degrees of freedom in the 1st order CPHF.  IDoFFX=6 NUNeed=     3.
     81 vectors produced by pass  0 Test12= 1.33D-14 1.19D-09 XBig12= 6.89D+01 1.94D+00.
 AX will form    81 AO Fock derivatives at one time.
     81 vectors produced by pass  1 Test12= 1.33D-14 1.19D-09 XBig12= 4.91D+00 2.97D-01.
     81 vectors produced by pass  2 Test12= 1.33D-14 1.19D-09 XBig12= 3.40D-02 1.71D-02.
     81 vectors produced by pass  3 Test12= 1.33D-14 1.19D-09 XBig12= 6.83D-05 1.02D-03.
     81 vectors produced by pass  4 Test12= 1.33D-14 1.19D-09 XBig12= 1.47D-07 3.44D-05.
     58 vectors produced by pass  5 Test12= 1.33D-14 1.19D-09 XBig12= 1.59D-10 1.24D-06.
      3 vectors produced by pass  6 Test12= 1.33D-14 1.19D-09 XBig12= 1.12D-13 3.06D-08.
      1 vectors produced by pass  7 Test12= 1.33D-14 1.19D-09 XBig12= 1.68D-16 1.64D-09.
 InvSVY:  IOpt=1 It=  1 EMax= 1.24D-14
 Solved reduced A of dimension   467 with    84 vectors.
 Isotropic polarizability for W=    0.000000      107.06 Bohr**3.
 End of Minotr F.D. properties file   721 does not exist.
 End of Minotr F.D. properties file   722 does not exist.
 End of Minotr F.D. properties file   788 does not exist.

 **********************************************************************

            Population analysis using the SCF density.

 **********************************************************************

 Alpha  occ. eigenvalues --  -77.29289 -19.25179 -10.37208 -10.35494 -10.35492
 Alpha  occ. eigenvalues --  -10.35436 -10.35266 -10.32627 -10.25389  -6.78794
 Alpha  occ. eigenvalues --   -4.94835  -4.94834  -4.94810  -1.16761  -0.99515
 Alpha  occ. eigenvalues --   -0.92112  -0.88989  -0.88955  -0.85651  -0.78354
 Alpha  occ. eigenvalues --   -0.72990  -0.71614  -0.64861  -0.64257  -0.62606
 Alpha  occ. eigenvalues --   -0.62052  -0.61236  -0.59542  -0.59243  -0.57796
 Alpha  occ. eigenvalues --   -0.57372  -0.57339  -0.54310  -0.54208  -0.53042
 Alpha  occ. eigenvalues --   -0.52419  -0.49021  -0.47864  -0.46031  -0.44727
 Alpha  occ. eigenvalues --   -0.38961
 Alpha virt. eigenvalues --   -0.14821  -0.12456  -0.12064  -0.11491  -0.10780
 Alpha virt. eigenvalues --   -0.10723  -0.10322  -0.09215  -0.08073  -0.07350
 Alpha virt. eigenvalues --   -0.07193  -0.06447  -0.06072  -0.05709  -0.04963
 Alpha virt. eigenvalues --   -0.04566  -0.04546  -0.03812  -0.03784  -0.03212
 Alpha virt. eigenvalues --   -0.03083  -0.02742  -0.02145  -0.01882  -0.00854
 Alpha virt. eigenvalues --   -0.00519   0.00291   0.01001   0.01451   0.01934
 Alpha virt. eigenvalues --    0.02302   0.02977   0.03846   0.04110   0.04992
 Alpha virt. eigenvalues --    0.05387   0.05852   0.06081   0.06130   0.07293
 Alpha virt. eigenvalues --    0.07330   0.08771   0.09136   0.09693   0.10650
 Alpha virt. eigenvalues --    0.11107   0.11373   0.12024   0.12204   0.12916
 Alpha virt. eigenvalues --    0.13613   0.15306   0.15517   0.15714   0.16274
 Alpha virt. eigenvalues --    0.16696   0.17644   0.18960   0.19078   0.19792
 Alpha virt. eigenvalues --    0.20397   0.20993   0.22445   0.24162   0.25139
 Alpha virt. eigenvalues --    0.26641   0.29644   0.31042   0.32739   0.32915
 Alpha virt. eigenvalues --    0.34799   0.35923   0.36751   0.36860   0.38190
 Alpha virt. eigenvalues --    0.38274   0.38701   0.40519   0.41269   0.41834
 Alpha virt. eigenvalues --    0.44357   0.44558   0.45304   0.46017   0.47693
 Alpha virt. eigenvalues --    0.47847   0.48621   0.49411   0.49720   0.50292
 Alpha virt. eigenvalues --    0.52573   0.53313   0.53332   0.53956   0.55384
 Alpha virt. eigenvalues --    0.56400   0.56472   0.57193   0.57816   0.58843
 Alpha virt. eigenvalues --    0.60160   0.61117   0.61458   0.63997   0.64129
 Alpha virt. eigenvalues --    0.64228   0.66358   0.69328   0.69948   0.70959
 Alpha virt. eigenvalues --    0.72185   0.76497   0.78183   0.79270   0.84105
 Alpha virt. eigenvalues --    0.85946   0.86642   0.87190   0.91300   0.91644
 Alpha virt. eigenvalues --    0.92837   0.95960   0.96658   0.97852   1.03062
 Alpha virt. eigenvalues --    1.08801   1.10078   1.12694   1.13055   1.14647
 Alpha virt. eigenvalues --    1.15829   1.18667   1.26566   1.27139   1.27992
 Alpha virt. eigenvalues --    1.34059   1.36978   1.38370   1.38585   1.39655
 Alpha virt. eigenvalues --    1.39997   1.40082   1.40689   1.41598   1.41811
 Alpha virt. eigenvalues --    1.42527   1.42632   1.45365   1.45725   1.47194
 Alpha virt. eigenvalues --    1.47771   1.48251   1.49425   1.49452   1.51027
 Alpha virt. eigenvalues --    1.51907   1.53562   1.53875   1.55400   1.56247
 Alpha virt. eigenvalues --    1.56379   1.59573   1.59672   1.64255   1.64767
 Alpha virt. eigenvalues --    1.65165   1.65202   1.68708   1.69969   1.72290
 Alpha virt. eigenvalues --    1.73093   1.74415   1.74453   1.79432   1.83871
 Alpha virt. eigenvalues --    1.85635   1.86408   1.87450   1.89366   1.90382
 Alpha virt. eigenvalues --    1.94696   1.98060   1.98430   1.99697   2.01791
 Alpha virt. eigenvalues --    2.02094   2.02861   2.05680   2.09073   2.10220
 Alpha virt. eigenvalues --    2.11441   2.13979   2.15411   2.16925   2.24475
 Alpha virt. eigenvalues --    2.27236   2.28179   2.28889   2.29519   2.31294
 Alpha virt. eigenvalues --    2.32052   2.32934   2.33896   2.34103   2.35251
 Alpha virt. eigenvalues --    2.35819   2.37421   2.37516   2.38824   2.38969
 Alpha virt. eigenvalues --    2.41340   2.42586   2.43170   2.46334   2.48571
 Alpha virt. eigenvalues --    2.49861   2.50858   2.51442   2.51834   2.52116
 Alpha virt. eigenvalues --    2.53413   2.55376   2.55892   2.58328   2.63587
 Alpha virt. eigenvalues --    2.69213   2.70767   2.74776   2.78748   2.80530
 Alpha virt. eigenvalues --    2.82809   2.84946   2.87365   2.92568   2.99660
 Alpha virt. eigenvalues --    3.06282   3.10098   3.11174   3.16091   3.16975
 Alpha virt. eigenvalues --    3.20532   3.25783   3.54231   3.55251   3.55912
 Alpha virt. eigenvalues --    3.57516   3.60009   3.61095   3.62103   3.65038
 Alpha virt. eigenvalues --    3.70839   3.72334   3.72701   3.84215   3.98561
 Alpha virt. eigenvalues --    4.06089   4.16230   4.93358   5.25258   5.58778
 Alpha virt. eigenvalues --    6.97387  13.85205  13.85392  13.87624  23.68466
 Alpha virt. eigenvalues --   23.71257  23.74170  23.75323  23.75537  23.76846
 Alpha virt. eigenvalues --   23.87869  49.80649 163.11770
          Condensed to atoms (all electrons):
               1          2          3          4          5          6
     1  C    5.909414   0.364261   0.364151  -0.243498  -0.014497   0.023368
     2  H    0.364261   0.435630  -0.013073  -0.014423   0.000154  -0.000057
     3  H    0.364151  -0.013073   0.435669   0.026496  -0.000083  -0.000191
     4  C   -0.243498  -0.014423   0.026496   6.182054   0.383380   0.329751
     5  H   -0.014497   0.000154  -0.000083   0.383380   0.434477  -0.013576
     6  H    0.023368  -0.000057  -0.000191   0.329751  -0.013576   0.446566
     7  C   -0.245671   0.026470  -0.014290  -0.154480  -0.018645  -0.020027
     8  H    0.023252  -0.000190  -0.000056  -0.019742   0.000168   0.000641
     9  H   -0.014493  -0.000083   0.000153  -0.018693   0.000682   0.000166
    10  C   -0.120815  -0.018646  -0.018887  -0.056407   0.010452  -0.020435
    11  H   -0.001664   0.001080  -0.000319  -0.026948  -0.000182   0.000080
    12  H   -0.000966  -0.000338   0.001098   0.017940  -0.000104  -0.000042
    13  C   -0.103352   0.001140   0.001113  -0.041754   0.006950  -0.004027
    14  H    0.000026  -0.000009  -0.000023  -0.016725  -0.000067  -0.000474
    15  H    0.000505  -0.000024  -0.000010   0.030889   0.000249   0.001643
    16  C   -0.006524   0.000027   0.000029  -0.003548   0.000430  -0.001295
    17  H    0.000007   0.000000  -0.000000   0.000226  -0.000000   0.000001
    18  H    0.000013  -0.000000   0.000000  -0.000392   0.000001  -0.000003
    19  C   -0.000595  -0.000010  -0.000011  -0.002713   0.000017  -0.000048
    20  H   -0.000004   0.000000   0.000000   0.000071  -0.000000   0.000000
    21  H   -0.000004   0.000000   0.000000  -0.000026   0.000000  -0.000000
    22  P    0.212550   0.002541   0.002692  -0.153500  -0.006204   0.044061
    23  O   -0.000990  -0.000032  -0.000031  -0.005194   0.000087  -0.000323
    24  H   -0.013018   0.000952  -0.000083   0.367139  -0.013373  -0.011023
    25  H    0.380023  -0.012645  -0.012622  -0.017760   0.000538  -0.000075
    26  H   -0.012800  -0.000084   0.000952   0.023723   0.000006  -0.000035
    27  H    0.000001   0.000000   0.000000  -0.000008   0.000000  -0.000000
               7          8          9         10         11         12
     1  C   -0.245671   0.023252  -0.014493  -0.120815  -0.001664  -0.000966
     2  H    0.026470  -0.000190  -0.000083  -0.018646   0.001080  -0.000338
     3  H   -0.014290  -0.000056   0.000153  -0.018887  -0.000319   0.001098
     4  C   -0.154480  -0.019742  -0.018693  -0.056407  -0.026948   0.017940
     5  H   -0.018645   0.000168   0.000682   0.010452  -0.000182  -0.000104
     6  H   -0.020027   0.000641   0.000166  -0.020435   0.000080  -0.000042
     7  C    6.188225   0.330102   0.382975  -0.051238   0.018161  -0.027522
     8  H    0.330102   0.446536  -0.013604  -0.019841  -0.000044   0.000085
     9  H    0.382975  -0.013604   0.434615   0.009902  -0.000103  -0.000178
    10  C   -0.051238  -0.019841   0.009902   7.733271   0.382776   0.380524
    11  H    0.018161  -0.000044  -0.000103   0.382776   0.430281  -0.017886
    12  H   -0.027522   0.000085  -0.000178   0.380524  -0.017886   0.430835
    13  C   -0.043535  -0.004429   0.007331  -1.090460  -0.019621  -0.018473
    14  H    0.032136   0.001509   0.000256  -0.035620   0.006633  -0.010887
    15  H   -0.017753  -0.000480  -0.000069  -0.035923  -0.010853   0.006653
    16  C   -0.003910  -0.001359   0.000444  -0.004403   0.002212   0.002286
    17  H   -0.000374  -0.000003   0.000001   0.001775   0.000052  -0.000092
    18  H    0.000214   0.000001  -0.000000   0.001942  -0.000093   0.000051
    19  C   -0.002635  -0.000056   0.000017  -0.066775   0.000247   0.000222
    20  H   -0.000027  -0.000000   0.000000   0.001091  -0.000047   0.000013
    21  H    0.000070   0.000000  -0.000000   0.001120   0.000013  -0.000047
    22  P   -0.160594   0.043514  -0.005680  -0.912882   0.002050   0.002866
    23  O   -0.005257  -0.000310   0.000088  -0.054676  -0.002734  -0.002638
    24  H    0.023866  -0.000036   0.000007   0.007768   0.000825  -0.000124
    25  H   -0.017810  -0.000074   0.000539   0.024142  -0.000127  -0.000126
    26  H    0.367053  -0.011048  -0.013334   0.008004  -0.000125   0.000815
    27  H   -0.000008  -0.000000   0.000000  -0.000572   0.000003   0.000003
              13         14         15         16         17         18
     1  C   -0.103352   0.000026   0.000505  -0.006524   0.000007   0.000013
     2  H    0.001140  -0.000009  -0.000024   0.000027   0.000000  -0.000000
     3  H    0.001113  -0.000023  -0.000010   0.000029  -0.000000   0.000000
     4  C   -0.041754  -0.016725   0.030889  -0.003548   0.000226  -0.000392
     5  H    0.006950  -0.000067   0.000249   0.000430  -0.000000   0.000001
     6  H   -0.004027  -0.000474   0.001643  -0.001295   0.000001  -0.000003
     7  C   -0.043535   0.032136  -0.017753  -0.003910  -0.000374   0.000214
     8  H   -0.004429   0.001509  -0.000480  -0.001359  -0.000003   0.000001
     9  H    0.007331   0.000256  -0.000069   0.000444   0.000001  -0.000000
    10  C   -1.090460  -0.035620  -0.035923  -0.004403   0.001775   0.001942
    11  H   -0.019621   0.006633  -0.010853   0.002212   0.000052  -0.000093
    12  H   -0.018473  -0.010887   0.006653   0.002286  -0.000092   0.000051
    13  C    6.500933   0.382798   0.381272  -0.157198  -0.021187  -0.020979
    14  H    0.382798   0.608530  -0.072471   0.017318   0.013952  -0.005479
    15  H    0.381272  -0.072471   0.609514   0.016943  -0.005477   0.013956
    16  C   -0.157198   0.017318   0.016943   5.167242   0.425886   0.425472
    17  H   -0.021187   0.013952  -0.005477   0.425886   0.581816  -0.055283
    18  H   -0.020979  -0.005479   0.013956   0.425472  -0.055283   0.581959
    19  C    0.005942   0.003733   0.003463   0.220471  -0.034236  -0.034336
    20  H   -0.003708   0.000034  -0.000140  -0.026335   0.007737  -0.008930
    21  H   -0.003703  -0.000140   0.000034  -0.026461  -0.008923   0.007739
    22  P    0.620987  -0.025413  -0.021565  -0.024271   0.000394   0.000486
    23  O    0.041769  -0.042546  -0.042904   0.118579  -0.045624  -0.045563
    24  H   -0.013185   0.000237  -0.001394  -0.000907   0.000000  -0.000001
    25  H    0.000570  -0.000001  -0.000001   0.000046   0.000000   0.000000
    26  H   -0.013272  -0.001418   0.000246  -0.000916  -0.000001   0.000000
    27  H    0.002612   0.000041   0.000041  -0.053701  -0.003414  -0.003420
              19         20         21         22         23         24
     1  C   -0.000595  -0.000004  -0.000004   0.212550  -0.000990  -0.013018
     2  H   -0.000010   0.000000   0.000000   0.002541  -0.000032   0.000952
     3  H   -0.000011   0.000000   0.000000   0.002692  -0.000031  -0.000083
     4  C   -0.002713   0.000071  -0.000026  -0.153500  -0.005194   0.367139
     5  H    0.000017  -0.000000   0.000000  -0.006204   0.000087  -0.013373
     6  H   -0.000048   0.000000  -0.000000   0.044061  -0.000323  -0.011023
     7  C   -0.002635  -0.000027   0.000070  -0.160594  -0.005257   0.023866
     8  H   -0.000056  -0.000000   0.000000   0.043514  -0.000310  -0.000036
     9  H    0.000017   0.000000  -0.000000  -0.005680   0.000088   0.000007
    10  C   -0.066775   0.001091   0.001120  -0.912882  -0.054676   0.007768
    11  H    0.000247  -0.000047   0.000013   0.002050  -0.002734   0.000825
    12  H    0.000222   0.000013  -0.000047   0.002866  -0.002638  -0.000124
    13  C    0.005942  -0.003708  -0.003703   0.620987   0.041769  -0.013185
    14  H    0.003733   0.000034  -0.000140  -0.025413  -0.042546   0.000237
    15  H    0.003463  -0.000140   0.000034  -0.021565  -0.042904  -0.001394
    16  C    0.220471  -0.026335  -0.026461  -0.024271   0.118579  -0.000907
    17  H   -0.034236   0.007737  -0.008923   0.000394  -0.045624   0.000000
    18  H   -0.034336  -0.008930   0.007739   0.000486  -0.045563  -0.000001
    19  C    5.250657   0.407928   0.408004   0.009580  -0.068869  -0.000041
    20  H    0.407928   0.524180  -0.026344  -0.000101  -0.005769  -0.000000
    21  H    0.408004  -0.026344   0.524137  -0.000105  -0.005741   0.000000
    22  P    0.009580  -0.000101  -0.000105  15.045824   0.027328  -0.010734
    23  O   -0.068869  -0.005769  -0.005741   0.027328   8.299852   0.000135
    24  H   -0.000041  -0.000000   0.000000  -0.010734   0.000135   0.427186
    25  H    0.000005   0.000000   0.000000  -0.006211   0.000052   0.000116
    26  H   -0.000042   0.000000  -0.000000  -0.010812   0.000130  -0.000220
    27  H    0.417727  -0.023579  -0.023579   0.000093   0.015352  -0.000000
              25         26         27
     1  C    0.380023  -0.012800   0.000001
     2  H   -0.012645  -0.000084   0.000000
     3  H   -0.012622   0.000952   0.000000
     4  C   -0.017760   0.023723  -0.000008
     5  H    0.000538   0.000006   0.000000
     6  H   -0.000075  -0.000035  -0.000000
     7  C   -0.017810   0.367053  -0.000008
     8  H   -0.000074  -0.011048  -0.000000
     9  H    0.000539  -0.013334   0.000000
    10  C    0.024142   0.008004  -0.000572
    11  H   -0.000127  -0.000125   0.000003
    12  H   -0.000126   0.000815   0.000003
    13  C    0.000570  -0.013272   0.002612
    14  H   -0.000001  -0.001418   0.000041
    15  H   -0.000001   0.000246   0.000041
    16  C    0.000046  -0.000916  -0.053701
    17  H    0.000000  -0.000001  -0.003414
    18  H    0.000000   0.000000  -0.003420
    19  C    0.000005  -0.000042   0.417727
    20  H    0.000000   0.000000  -0.023579
    21  H    0.000000  -0.000000  -0.023579
    22  P   -0.006211  -0.010812   0.000093
    23  O    0.000052   0.000130   0.015352
    24  H    0.000116  -0.000220  -0.000000
    25  H    0.436526   0.000113  -0.000000
    26  H    0.000113   0.427052  -0.000000
    27  H   -0.000000  -0.000000   0.511184
 Mulliken charges:
               1
     1  C   -0.498679
     2  H    0.227357
     3  H    0.227326
     4  C   -0.585856
     5  H    0.229139
     6  H    0.225351
     7  C   -0.585496
     8  H    0.225466
     9  H    0.229062
    10  C   -0.055187
    11  H    0.236333
    12  H    0.236032
    13  C   -0.394533
    14  H    0.144070
    15  H    0.143656
    16  C   -0.086555
    17  H    0.142767
    18  H    0.142644
    19  C   -0.517645
    20  H    0.153930
    21  H    0.153957
    22  P    0.323108
    23  O   -0.174173
    24  H    0.235908
    25  H    0.224783
    26  H    0.236013
    27  H    0.161223
 Sum of Mulliken charges =   1.00000
 Mulliken charges with hydrogens summed into heavy atoms:
               1
     1  C    0.180786
     4  C    0.104542
     7  C    0.105045
    10  C    0.417177
    13  C   -0.106807
    16  C    0.198857
    19  C   -0.048535
    22  P    0.323108
    23  O   -0.174173
 APT charges:
               1
     1  C   -0.272256
     2  H    0.068614
     3  H    0.068545
     4  C   -0.275095
     5  H    0.065936
     6  H    0.066913
     7  C   -0.275020
     8  H    0.066852
     9  H    0.065941
    10  C   -0.225090
    11  H    0.041774
    12  H    0.041557
    13  C    0.583775
    14  H   -0.062668
    15  H   -0.062834
    16  C    0.607471
    17  H   -0.067589
    18  H   -0.067617
    19  C    0.016302
    20  H    0.006783
    21  H    0.006811
    22  P    1.254410
    23  O   -0.856144
    24  H    0.067999
    25  H    0.057873
    26  H    0.068006
    27  H    0.008751
 Sum of APT charges =   1.00000
 APT charges with hydrogens summed into heavy atoms:
               1
     1  C   -0.077224
     4  C   -0.074246
     7  C   -0.074221
    10  C   -0.141759
    13  C    0.458273
    16  C    0.472265
    19  C    0.038647
    22  P    1.254410
    23  O   -0.856144
 Electronic spatial extent (au):  <R**2>=           3896.1833
 Charge=              1.0000 electrons
 Dipole moment (field-independent basis, Debye):
    X=            -13.4436    Y=              0.1326    Z=              0.1084  Tot=             13.4447
 Quadrupole moment (field-independent basis, Debye-Ang):
   XX=             -5.8335   YY=            -56.2932   ZZ=            -55.7375
   XY=              3.3654   XZ=             -6.8281   YZ=             -0.4284
 Traceless Quadrupole moment (field-independent basis, Debye-Ang):
   XX=             33.4546   YY=            -17.0051   ZZ=            -16.4494
   XY=              3.3654   XZ=             -6.8281   YZ=             -0.4284
 Octapole moment (field-independent basis, Debye-Ang**2):
  XXX=            122.8696  YYY=           -115.9497  ZZZ=            182.3121  XYY=            102.7250
  XXY=            -35.9562  XXZ=             61.9970  XZZ=            115.0211  YZZ=            -33.7246
  YYZ=             60.8111  XYZ=            -11.1925
 Hexadecapole moment (field-independent basis, Debye-Ang**3):
 XXXX=          -1884.3171 YYYY=           -686.9305 ZZZZ=          -1417.9470 XXXY=            -70.7944
 XXXZ=            131.7931 YYYX=            -58.3928 YYYZ=            336.6093 ZZZX=             81.4164
 ZZZY=            326.8893 XXYY=           -529.8825 XXZZ=           -647.5838 YYZZ=           -346.8748
 XXYZ=            106.9662 YYXZ=             26.2124 ZZXY=             13.7037
 N-N= 5.782720512540D+02 E-N=-2.774473204148D+03  KE= 6.919023557748D+02
  Exact polarizability: 114.622   7.195  99.544 -12.500  -6.470 107.000
 Approx polarizability: 145.582   1.546 141.730  -2.696  -2.781 144.910
 Calling FoFJK, ICntrl=    100127 FMM=F ISym2X=0 I1Cent= 0 IOpClX= 0 NMat=1 NMatS=1 NMatT=0.
 Full mass-weighted force constant matrix:
 Low frequencies ---   -2.1462   -0.0018   -0.0008    0.0004    2.6228    9.1897
 Low frequencies ---   29.1964   47.0117   84.5069
 Diagonal vibrational polarizability:
       10.0702703      45.2944408      22.8151933
 Harmonic frequencies (cm**-1), IR intensities (KM/Mole), Raman scattering
 activities (A**4/AMU), depolarization ratios for plane and unpolarized
 incident light, reduced masses (AMU), force constants (mDyne/A),
 and normal coordinates:
                      1                      2                      3
                      A                      A                      A
 Frequencies --     29.1826                47.0066                84.5065
 Red. masses --      1.8966                 2.7698                 3.1060
 Frc consts  --      0.0010                 0.0036                 0.0131
 IR Inten    --      0.9304                 0.5857                 0.0537
  Atom  AN      X      Y      Z        X      Y      Z        X      Y      Z
     1   6     0.00   0.03   0.02     0.00  -0.10  -0.06    -0.04  -0.10   0.17
     2   1     0.02   0.04   0.08    -0.07  -0.12  -0.03    -0.11  -0.12   0.21
     3   1    -0.02   0.08  -0.01     0.07  -0.09  -0.09    -0.11  -0.12   0.20
     4   6     0.04  -0.07   0.01    -0.13  -0.05   0.08     0.11   0.04  -0.07
     5   1     0.02  -0.07   0.00    -0.09  -0.18   0.04     0.20   0.03  -0.02
     6   1     0.03  -0.12   0.00    -0.12   0.06   0.10     0.13   0.08  -0.17
     7   6    -0.04  -0.03  -0.07     0.12   0.05  -0.09     0.11   0.04  -0.07
     8   1    -0.03  -0.06  -0.10     0.11   0.11   0.00     0.13   0.11  -0.16
     9   1    -0.03  -0.03  -0.06     0.09  -0.06  -0.17     0.20   0.00  -0.03
    10   6     0.00   0.01   0.00     0.00   0.16   0.09    -0.13   0.05  -0.08
    11   1    -0.09  -0.03  -0.06     0.04   0.18   0.22    -0.15   0.04  -0.06
    12   1     0.09  -0.06   0.01    -0.04   0.28   0.04    -0.15   0.04  -0.07
    13   6     0.00   0.13   0.08     0.00   0.07   0.04    -0.13   0.04  -0.07
    14   1     0.09   0.17   0.27    -0.06   0.05  -0.02    -0.15   0.04  -0.06
    15   1    -0.09   0.32   0.01     0.06   0.01   0.05    -0.14   0.03  -0.06
    16   6     0.00   0.11   0.07    -0.00  -0.10  -0.06    -0.03  -0.05   0.08
    17   1     0.12   0.16   0.32    -0.14  -0.15  -0.09    -0.09  -0.07   0.13
    18   1    -0.12   0.36  -0.02     0.14  -0.15  -0.09    -0.09  -0.07   0.13
    19   6    -0.00  -0.13  -0.08    -0.00  -0.14  -0.08     0.16  -0.07   0.12
    20   1    -0.13  -0.18  -0.33     0.14  -0.08  -0.05     0.22  -0.04   0.07
    21   1     0.13  -0.38   0.01    -0.14  -0.08  -0.05     0.22  -0.05   0.07
    22  15    -0.00  -0.01  -0.01     0.00   0.02   0.01    -0.01   0.01  -0.02
    23   8    -0.00  -0.03  -0.02     0.00   0.09   0.05    -0.05   0.03  -0.05
    24   1     0.08  -0.06   0.04    -0.25  -0.08   0.16     0.06   0.03  -0.05
    25   1    -0.00  -0.01  -0.00    -0.00  -0.17  -0.10     0.09  -0.14   0.23
    26   1    -0.08   0.00  -0.07     0.24   0.10  -0.15     0.07   0.03  -0.06
    27   1     0.00  -0.02  -0.01    -0.00  -0.29  -0.17     0.18  -0.14   0.25
                      4                      5                      6
                      A                      A                      A
 Frequencies --    102.1365               119.4072               165.6864
 Red. masses --      1.9668                 2.9756                 1.0400
 Frc consts  --      0.0121                 0.0250                 0.0168
 IR Inten    --      2.6233                 5.2045                 0.1275
  Atom  AN      X      Y      Z        X      Y      Z        X      Y      Z
     1   6    -0.00   0.00   0.00    -0.00   0.01   0.00    -0.00  -0.02  -0.01
     2   1     0.01   0.01   0.03     0.03   0.01  -0.05    -0.06  -0.02   0.39
     3   1    -0.02   0.03  -0.01    -0.03  -0.03   0.04     0.06   0.32  -0.21
     4   6     0.05   0.01  -0.05     0.03   0.03  -0.05    -0.02   0.01   0.01
     5   1    -0.02   0.12  -0.04    -0.00   0.10  -0.03    -0.24   0.19  -0.03
     6   1     0.03  -0.09  -0.02     0.03  -0.03  -0.03    -0.07  -0.23   0.17
     7   6    -0.04  -0.04   0.04    -0.03  -0.03   0.05     0.02   0.01   0.00
     8   1    -0.03  -0.06  -0.07    -0.02  -0.04  -0.01     0.07   0.03  -0.29
     9   1     0.02   0.03   0.12     0.00   0.03   0.11     0.25   0.07   0.19
    10   6    -0.00  -0.08  -0.05    -0.00  -0.05  -0.03     0.00   0.01   0.01
    11   1    -0.15  -0.13  -0.19     0.08  -0.02   0.05     0.02   0.02   0.02
    12   1     0.15  -0.23  -0.02    -0.08   0.03  -0.04    -0.02   0.03   0.00
    13   6    -0.00   0.15   0.09    -0.00  -0.14  -0.08     0.00  -0.02  -0.01
    14   1     0.15   0.21   0.20    -0.06  -0.16  -0.45    -0.02  -0.03  -0.03
    15   1    -0.14   0.28   0.08     0.06  -0.47   0.08     0.02  -0.04  -0.01
    16   6    -0.00  -0.09  -0.05     0.00   0.11   0.06     0.00  -0.00  -0.00
    17   1    -0.17  -0.16  -0.20    -0.08   0.08   0.19     0.01   0.00   0.00
    18   1     0.17  -0.25  -0.04     0.08   0.20  -0.03    -0.01   0.01   0.00
    19   6     0.00  -0.01  -0.00    -0.00  -0.12  -0.07    -0.00   0.00   0.00
    20   1     0.23   0.08   0.17     0.05  -0.09  -0.24    -0.03  -0.01  -0.01
    21   1    -0.22   0.19  -0.01    -0.05  -0.25   0.03     0.02  -0.01  -0.00
    22  15    -0.00  -0.03  -0.02    -0.00  -0.02  -0.01    -0.00   0.01   0.00
    23   8    -0.00   0.11   0.07     0.00   0.24   0.14     0.00  -0.01  -0.01
    24   1     0.16   0.04  -0.12     0.10   0.04  -0.11     0.23   0.06  -0.10
    25   1     0.00  -0.01  -0.01     0.00   0.07   0.04     0.00  -0.37  -0.21
    26   1    -0.16  -0.09   0.09    -0.10  -0.08   0.09    -0.24  -0.06   0.10
    27   1     0.00  -0.23  -0.13    -0.00  -0.20  -0.12    -0.00   0.03   0.01
                      7                      8                      9
                      A                      A                      A
 Frequencies --    177.4427               191.2853               193.1302
 Red. masses --      3.2092                 1.0570                 1.0525
 Frc consts  --      0.0595                 0.0228                 0.0231
 IR Inten    --      2.7758                 0.1813                 0.1401
  Atom  AN      X      Y      Z        X      Y      Z        X      Y      Z
     1   6     0.04   0.04  -0.06     0.01   0.02  -0.01    -0.00   0.02   0.02
     2   1     0.09   0.05  -0.10     0.02   0.02   0.11    -0.03   0.03   0.43
     3   1     0.09   0.04  -0.08     0.03   0.13  -0.08     0.02   0.37  -0.18
     4   6    -0.07  -0.11   0.12     0.02  -0.00  -0.00    -0.00   0.01  -0.01
     5   1    -0.07  -0.23   0.05    -0.20   0.21  -0.03     0.28  -0.23   0.04
     6   1    -0.07  -0.07   0.15    -0.03  -0.27   0.14     0.06   0.34  -0.20
     7   6    -0.07  -0.05   0.16     0.02  -0.00   0.01    -0.01  -0.01   0.02
     8   1    -0.06  -0.10   0.12    -0.06   0.02   0.47    -0.04  -0.01   0.17
     9   1    -0.06   0.07   0.24    -0.31  -0.11  -0.28    -0.13  -0.02  -0.07
    10   6    -0.02  -0.01   0.01    -0.02  -0.01  -0.01     0.00  -0.03  -0.02
    11   1    -0.09  -0.03   0.05    -0.03  -0.02  -0.01    -0.01  -0.04  -0.06
    12   1    -0.09  -0.02   0.05    -0.02  -0.03   0.00     0.02  -0.07  -0.01
    13   6    -0.02   0.07  -0.13    -0.02   0.00  -0.01     0.01  -0.01  -0.00
    14   1     0.01   0.09  -0.15    -0.01   0.01  -0.01     0.02  -0.00  -0.01
    15   1     0.02   0.08  -0.15    -0.02   0.00  -0.01    -0.01  -0.01   0.01
    16   6    -0.04   0.03  -0.06    -0.02  -0.00   0.00     0.01   0.01  -0.00
    17   1    -0.10   0.01  -0.01    -0.03  -0.01   0.01     0.00   0.00  -0.00
    18   1    -0.10   0.01  -0.01    -0.03  -0.01   0.01     0.02   0.00  -0.00
    19   6     0.21   0.01  -0.01     0.01  -0.01   0.01     0.00  -0.00  -0.01
    20   1     0.31   0.05  -0.09     0.02   0.00   0.00     0.02   0.01  -0.00
    21   1     0.31   0.05  -0.09     0.01  -0.00   0.00    -0.02   0.01   0.00
    22  15     0.02  -0.03   0.05     0.01  -0.00   0.01    -0.00  -0.00  -0.00
    23   8    -0.06   0.09  -0.15    -0.02   0.01  -0.01     0.01   0.01   0.01
    24   1    -0.13  -0.12   0.22     0.31   0.06  -0.12    -0.35  -0.06   0.11
    25   1    -0.06   0.07  -0.10    -0.01  -0.08  -0.08     0.00  -0.32  -0.17
    26   1    -0.14  -0.14   0.22     0.45   0.09  -0.15     0.12   0.01  -0.03
    27   1     0.24  -0.10   0.18     0.01  -0.02   0.03    -0.00  -0.02  -0.02
                     10                     11                     12
                      A                      A                      A
 Frequencies --    217.7011               227.2848               249.5930
 Red. masses --      2.6047                 2.2290                 1.1692
 Frc consts  --      0.0727                 0.0678                 0.0429
 IR Inten    --      0.0772                 0.0103                 0.9825
  Atom  AN      X      Y      Z        X      Y      Z        X      Y      Z
     1   6    -0.06  -0.12   0.20    -0.00   0.15   0.09     0.00   0.01   0.01
     2   1    -0.19  -0.15   0.26     0.17   0.20   0.07     0.02   0.02   0.01
     3   1    -0.19  -0.17   0.27    -0.17   0.16   0.14    -0.02   0.02   0.01
     4   6    -0.13   0.05   0.01    -0.15  -0.04   0.06    -0.01   0.00  -0.01
     5   1    -0.28   0.14  -0.04    -0.27  -0.09  -0.05    -0.01  -0.00  -0.01
     6   1    -0.16   0.01   0.17    -0.18  -0.02   0.22    -0.01   0.01  -0.00
     7   6    -0.13  -0.03  -0.04     0.15   0.03  -0.06     0.01  -0.01   0.00
     8   1    -0.16  -0.15   0.08     0.18   0.18  -0.13     0.01   0.01   0.01
     9   1    -0.28  -0.03  -0.14     0.28  -0.08  -0.05     0.01  -0.01   0.00
    10   6     0.05   0.00  -0.00    -0.00  -0.13  -0.08     0.00  -0.01  -0.00
    11   1     0.05   0.00  -0.01    -0.05  -0.15  -0.26    -0.02  -0.01  -0.01
    12   1     0.05   0.01  -0.01     0.05  -0.30  -0.00     0.02  -0.02  -0.00
    13   6     0.08   0.01  -0.02     0.00  -0.03  -0.02     0.00   0.02   0.01
    14   1     0.07   0.01  -0.02     0.07  -0.00  -0.01     0.01   0.02  -0.02
    15   1     0.07   0.01  -0.02    -0.07  -0.01   0.00    -0.01  -0.00   0.03
    16   6     0.09   0.04  -0.07     0.00   0.01   0.01    -0.00  -0.07  -0.04
    17   1     0.10   0.04  -0.08    -0.00   0.01   0.01    -0.09  -0.11  -0.13
    18   1     0.10   0.04  -0.08     0.00   0.01   0.00     0.09  -0.17  -0.03
    19   6     0.08   0.04  -0.08     0.00  -0.00  -0.00    -0.00   0.00   0.00
    20   1     0.08   0.04  -0.08     0.06   0.02   0.01    -0.48  -0.19  -0.12
    21   1     0.08   0.04  -0.08    -0.06   0.02   0.01     0.48  -0.20  -0.11
    22  15    -0.02   0.00  -0.00    -0.00  -0.01  -0.00     0.00  -0.01  -0.00
    23   8     0.08   0.02  -0.03     0.00   0.01   0.01     0.00   0.06   0.03
    24   1    -0.07   0.06  -0.10    -0.18  -0.05   0.07    -0.02  -0.00  -0.01
    25   1     0.16  -0.17   0.31     0.00   0.29   0.17     0.00   0.02   0.01
    26   1    -0.07   0.06  -0.10     0.17   0.04  -0.07     0.02  -0.01   0.00
    27   1     0.08   0.04  -0.07     0.00  -0.07  -0.04     0.00   0.51   0.30
                     13                     14                     15
                      A                      A                      A
 Frequencies --    252.8839               274.5601               320.0846
 Red. masses --      2.5821                 2.4070                 3.1961
 Frc consts  --      0.0973                 0.1069                 0.1929
 IR Inten    --      1.9624                 1.0975                 2.5608
  Atom  AN      X      Y      Z        X      Y      Z        X      Y      Z
     1   6     0.09   0.02  -0.04     0.00  -0.11  -0.06     0.17  -0.02   0.04
     2   1     0.15   0.04  -0.06    -0.21  -0.18  -0.14     0.10  -0.04   0.07
     3   1     0.16   0.04  -0.07     0.21  -0.21  -0.08     0.10  -0.04   0.07
     4   6    -0.05   0.19  -0.00     0.06  -0.02   0.13    -0.09  -0.03   0.03
     5   1    -0.04   0.31   0.07     0.06  -0.12   0.08    -0.26  -0.17  -0.15
     6   1    -0.04   0.37   0.07     0.06  -0.11   0.07    -0.12   0.04   0.28
     7   6    -0.05  -0.09  -0.17    -0.06   0.10  -0.08    -0.09  -0.01   0.04
     8   1    -0.04  -0.25  -0.29    -0.06   0.01  -0.12    -0.12  -0.26   0.12
     9   1    -0.04  -0.21  -0.24    -0.07   0.01  -0.14    -0.26   0.22   0.07
    10   6     0.01  -0.04   0.07    -0.00  -0.13  -0.08    -0.03   0.07  -0.12
    11   1    -0.02  -0.05   0.08    -0.04  -0.16  -0.40    -0.05   0.07  -0.09
    12   1    -0.02  -0.05   0.08     0.04  -0.42   0.06    -0.05   0.05  -0.10
    13   6    -0.01   0.00  -0.00    -0.00  -0.04  -0.02    -0.07   0.02  -0.04
    14   1     0.03   0.01  -0.02     0.06  -0.02  -0.04    -0.11   0.01  -0.01
    15   1     0.03   0.01  -0.02    -0.07  -0.04   0.01    -0.11   0.01  -0.01
    16   6    -0.07  -0.00   0.01     0.00  -0.00  -0.00    -0.02  -0.05   0.09
    17   1    -0.09  -0.01   0.03    -0.02  -0.01  -0.01    -0.03  -0.06   0.09
    18   1    -0.09  -0.02   0.03     0.02  -0.02  -0.00    -0.03  -0.05   0.09
    19   6     0.02  -0.02   0.03    -0.00  -0.00  -0.00    -0.12  -0.05   0.08
    20   1     0.06   0.00   0.00    -0.04  -0.02  -0.02    -0.20  -0.08   0.13
    21   1     0.06  -0.00   0.00     0.04  -0.02  -0.01    -0.20  -0.07   0.13
    22  15     0.07  -0.04   0.08     0.00   0.11   0.06     0.15   0.05  -0.08
    23   8    -0.07   0.01  -0.02     0.00   0.03   0.02    -0.01  -0.00   0.01
    24   1    -0.18   0.15  -0.26     0.10  -0.01   0.28    -0.18  -0.05   0.10
    25   1    -0.02   0.05  -0.09     0.00  -0.20  -0.11     0.27  -0.05   0.09
    26   1    -0.18   0.15  -0.26    -0.10   0.24  -0.14    -0.17  -0.06   0.09
    27   1     0.03  -0.06   0.10    -0.00   0.04   0.02    -0.15   0.02  -0.04
                     16                     17                     18
                      A                      A                      A
 Frequencies --    388.5088               477.4983               641.5555
 Red. masses --      3.5959                 3.2825                 3.7999
 Frc consts  --      0.3198                 0.4410                 0.9215
 IR Inten    --      7.3882                 6.0703                 1.5616
  Atom  AN      X      Y      Z        X      Y      Z        X      Y      Z
     1   6    -0.01   0.02  -0.04     0.08   0.00  -0.00     0.22  -0.02   0.03
     2   1     0.10   0.05  -0.09     0.10   0.01  -0.02     0.22  -0.02   0.03
     3   1     0.10   0.06  -0.09     0.10   0.01  -0.02     0.22  -0.02   0.03
     4   6     0.01   0.04   0.06    -0.00  -0.00  -0.00    -0.08  -0.13  -0.22
     5   1     0.03   0.10   0.11    -0.05  -0.05  -0.06    -0.03  -0.06  -0.16
     6   1     0.02   0.07   0.04    -0.01   0.02   0.08    -0.07  -0.13  -0.28
     7   6     0.01  -0.07  -0.00    -0.00   0.00  -0.00    -0.08   0.26  -0.00
     8   1     0.02  -0.07  -0.04    -0.01  -0.08   0.02    -0.07   0.31  -0.03
     9   1     0.03  -0.14  -0.03    -0.05   0.08   0.01    -0.03   0.17  -0.03
    10   6    -0.19   0.04  -0.08    -0.13   0.03  -0.05    -0.06  -0.10   0.17
    11   1    -0.29   0.01  -0.01    -0.10   0.04  -0.04    -0.15  -0.12   0.19
    12   1    -0.29   0.00  -0.02    -0.10   0.02  -0.05    -0.14  -0.10   0.20
    13   6    -0.15   0.06  -0.10    -0.14  -0.09   0.16    -0.04   0.01  -0.02
    14   1    -0.24   0.02  -0.03    -0.24  -0.13   0.22    -0.01   0.02  -0.03
    15   1    -0.25   0.02  -0.03    -0.24  -0.12   0.22    -0.01   0.01  -0.03
    16   6     0.23  -0.01   0.02    -0.03   0.07  -0.11     0.06  -0.01   0.01
    17   1     0.25  -0.00  -0.01     0.05   0.10  -0.16     0.05  -0.01   0.01
    18   1     0.25   0.01  -0.01     0.05   0.09  -0.17     0.05  -0.00   0.01
    19   6    -0.04   0.02  -0.04     0.13   0.08  -0.15     0.01   0.01  -0.01
    20   1    -0.19  -0.04   0.06     0.30   0.16  -0.25    -0.04  -0.02   0.02
    21   1    -0.19  -0.03   0.07     0.30   0.14  -0.26    -0.04  -0.01   0.03
    22  15    -0.02  -0.05   0.09     0.04   0.01  -0.02    -0.03  -0.03   0.04
    23   8     0.19   0.01  -0.01    -0.02  -0.10   0.18     0.01   0.02  -0.03
    24   1    -0.00   0.03  -0.03    -0.04  -0.01   0.02    -0.05  -0.12  -0.27
    25   1    -0.19   0.07  -0.12     0.03   0.01  -0.03     0.21  -0.01   0.03
    26   1    -0.00   0.01  -0.04    -0.04  -0.01   0.02    -0.05   0.29  -0.03
    27   1    -0.08   0.18  -0.30     0.18  -0.08   0.13    -0.00   0.06  -0.10
                     19                     20                     21
                      A                      A                      A
 Frequencies --    737.4536               760.0482               768.8077
 Red. masses --      1.5069                 3.5365                 2.0963
 Frc consts  --      0.4829                 1.2037                 0.7300
 IR Inten    --      0.0017                 6.4275                 6.4692
  Atom  AN      X      Y      Z        X      Y      Z        X      Y      Z
     1   6     0.00  -0.01  -0.00     0.31  -0.02   0.04    -0.00   0.04   0.02
     2   1     0.03  -0.00   0.01     0.32  -0.02   0.04    -0.23  -0.03  -0.07
     3   1    -0.02   0.01  -0.01     0.31  -0.02   0.04     0.24  -0.08   0.01
     4   6     0.04   0.05   0.08    -0.03   0.04   0.08    -0.04  -0.03  -0.16
     5   1    -0.02  -0.02   0.01     0.15   0.10   0.24    -0.11  -0.25  -0.32
     6   1     0.02   0.06   0.18     0.00  -0.09  -0.21    -0.06  -0.16  -0.08
     7   6    -0.04   0.10   0.00    -0.03  -0.09   0.01     0.04  -0.15   0.05
     8   1    -0.02   0.18  -0.04     0.00   0.22  -0.02     0.06  -0.15  -0.10
     9   1     0.02   0.00  -0.02     0.15  -0.25   0.03     0.11  -0.40  -0.05
    10   6    -0.00  -0.10  -0.06     0.04   0.08  -0.14     0.00  -0.05  -0.04
    11   1     0.23  -0.00   0.50     0.14   0.11  -0.19     0.20   0.03   0.27
    12   1    -0.23   0.44  -0.25     0.15   0.10  -0.19    -0.20   0.25  -0.12
    13   6     0.00  -0.02  -0.01     0.04  -0.00   0.00     0.00  -0.02  -0.01
    14   1     0.28   0.09   0.17     0.03  -0.01  -0.00     0.20   0.06   0.13
    15   1    -0.28   0.19  -0.00     0.04  -0.00   0.01    -0.20   0.14  -0.01
    16   6    -0.00   0.00   0.00    -0.04   0.00  -0.01    -0.00   0.00   0.00
    17   1    -0.02  -0.00  -0.02    -0.03   0.01  -0.01    -0.02  -0.00  -0.02
    18   1     0.02  -0.02   0.00    -0.03   0.00  -0.01     0.01  -0.02   0.01
    19   6    -0.00   0.00   0.00    -0.01  -0.01   0.01    -0.00   0.00   0.00
    20   1    -0.00   0.00  -0.01     0.02   0.01  -0.01     0.00   0.00  -0.02
    21   1     0.00  -0.01   0.01     0.02   0.00  -0.01     0.00  -0.01   0.01
    22  15    -0.00  -0.05  -0.03    -0.17   0.00  -0.00    -0.00   0.10   0.06
    23   8     0.00   0.01   0.00     0.01  -0.00   0.00     0.00   0.01   0.00
    24   1    -0.01   0.04   0.14     0.14   0.08   0.13    -0.02  -0.02   0.10
    25   1     0.00  -0.00  -0.00     0.31  -0.02   0.04    -0.01  -0.09  -0.05
    26   1     0.01   0.14  -0.03     0.14  -0.15  -0.01     0.02   0.08  -0.07
    27   1    -0.00  -0.00  -0.00    -0.00  -0.05   0.08    -0.00  -0.01   0.00
                     22                     23                     24
                      A                      A                      A
 Frequencies --    776.6769               818.6711               827.5976
 Red. masses --      2.8391                 1.1722                 1.0878
 Frc consts  --      1.0090                 0.4629                 0.4390
 IR Inten    --      1.3855                 0.0002                 0.6528
  Atom  AN      X      Y      Z        X      Y      Z        X      Y      Z
     1   6     0.07   0.03  -0.06     0.00   0.06   0.03     0.00   0.00   0.00
     2   1    -0.19  -0.03   0.12    -0.36  -0.05  -0.13    -0.01  -0.00  -0.00
     3   1    -0.18  -0.09   0.09     0.36  -0.14   0.02     0.01  -0.00   0.00
     4   6     0.01   0.08   0.09     0.05  -0.05   0.01     0.00   0.00  -0.00
     5   1     0.07  -0.02   0.07    -0.13   0.11  -0.03    -0.01  -0.02  -0.02
     6   1     0.02  -0.05  -0.00     0.03   0.26   0.29    -0.00  -0.01   0.01
     7   6     0.02  -0.12  -0.02    -0.05  -0.02  -0.04    -0.00   0.00   0.01
     8   1     0.02   0.02   0.03    -0.03   0.38   0.08     0.00   0.01  -0.01
     9   1     0.07  -0.07   0.05     0.13   0.03   0.11     0.01  -0.03  -0.01
    10   6    -0.05  -0.13   0.22     0.00   0.00   0.00    -0.00  -0.01  -0.00
    11   1    -0.17  -0.16   0.25    -0.00   0.00  -0.02    -0.01  -0.01   0.03
    12   1    -0.18  -0.12   0.26     0.00  -0.01   0.01     0.01   0.02  -0.02
    13   6    -0.07  -0.00   0.00    -0.00   0.00   0.00     0.00   0.01   0.00
    14   1    -0.04   0.01  -0.00    -0.00  -0.00  -0.00    -0.01   0.00  -0.04
    15   1    -0.05   0.00  -0.01     0.00  -0.00   0.00     0.01  -0.03   0.02
    16   6     0.08  -0.01   0.01    -0.00  -0.00  -0.00    -0.00  -0.06  -0.03
    17   1     0.04  -0.02   0.02     0.00  -0.00   0.00     0.09  -0.03   0.49
    18   1     0.04  -0.01   0.03    -0.00   0.00  -0.00    -0.09   0.41  -0.26
    19   6     0.03   0.01  -0.02    -0.00  -0.00  -0.00    -0.00  -0.04  -0.02
    20   1    -0.06  -0.02   0.02    -0.00  -0.00   0.00    -0.03  -0.06   0.47
    21   1    -0.06  -0.01   0.03     0.00   0.00  -0.00     0.03   0.38  -0.28
    22  15    -0.02   0.07  -0.11    -0.00   0.00   0.00    -0.00  -0.00  -0.00
    23   8    -0.03   0.01  -0.02     0.00  -0.00  -0.00     0.00   0.02   0.01
    24   1     0.11   0.11   0.26    -0.20  -0.11  -0.31    -0.00   0.00   0.03
    25   1     0.49  -0.08   0.14     0.00  -0.15  -0.08    -0.00  -0.00  -0.00
    26   1     0.11  -0.28   0.03     0.20  -0.32   0.06     0.00   0.03  -0.01
    27   1     0.01   0.10  -0.17     0.00   0.00   0.00     0.00   0.16   0.09
                     25                     26                     27
                      A                      A                      A
 Frequencies --    875.5395               879.4993               903.5758
 Red. masses --      1.2377                 1.5842                 1.8924
 Frc consts  --      0.5590                 0.7220                 0.9103
 IR Inten    --      7.5340                 2.0458                21.0856
  Atom  AN      X      Y      Z        X      Y      Z        X      Y      Z
     1   6    -0.00  -0.01  -0.01    -0.02   0.05  -0.08     0.01  -0.03   0.06
     2   1     0.06   0.01   0.03    -0.31  -0.03   0.14     0.20   0.02  -0.09
     3   1    -0.07   0.02  -0.00    -0.30  -0.10   0.09     0.20   0.07  -0.06
     4   6    -0.05  -0.06   0.02    -0.04  -0.03   0.01     0.03   0.04  -0.01
     5   1     0.13   0.24   0.30     0.11   0.11   0.18    -0.10  -0.13  -0.19
     6   1     0.01   0.03  -0.26    -0.00  -0.03  -0.20    -0.00  -0.01   0.17
     7   6     0.05  -0.01  -0.06    -0.04   0.01   0.03     0.03  -0.01  -0.04
     8   1    -0.01  -0.20   0.15     0.00   0.19  -0.08    -0.00  -0.14   0.10
     9   1    -0.13   0.37   0.06     0.12  -0.23  -0.01    -0.10   0.23   0.02
    10   6     0.00  -0.01  -0.01     0.01   0.01  -0.02    -0.07  -0.04   0.07
    11   1     0.26   0.07  -0.02    -0.11  -0.03   0.04    -0.14  -0.06   0.09
    12   1    -0.26   0.02   0.07    -0.10  -0.02   0.04    -0.14  -0.04   0.10
    13   6    -0.00  -0.04  -0.02    -0.01   0.03  -0.06     0.06   0.03  -0.06
    14   1     0.23   0.05   0.16    -0.05   0.02  -0.02     0.07   0.03  -0.05
    15   1    -0.23   0.16  -0.03    -0.04   0.01  -0.02     0.06   0.03  -0.05
    16   6    -0.00  -0.00  -0.00    -0.08   0.02  -0.03    -0.08   0.03  -0.05
    17   1    -0.01  -0.01   0.04     0.03   0.05  -0.08     0.06   0.07  -0.12
    18   1     0.01   0.03  -0.02     0.03   0.04  -0.08     0.06   0.07  -0.12
    19   6    -0.00  -0.00  -0.00    -0.07  -0.02   0.03    -0.10  -0.03   0.06
    20   1    -0.00  -0.01   0.04     0.13   0.06  -0.06     0.16   0.07  -0.06
    21   1     0.00   0.03  -0.03     0.13   0.02  -0.08     0.16   0.01  -0.09
    22  15     0.00   0.03   0.02     0.04  -0.01   0.02    -0.03   0.02  -0.03
    23   8     0.00   0.01   0.01     0.09  -0.02   0.04     0.13  -0.01   0.01
    24   1     0.04  -0.05  -0.31     0.06  -0.01  -0.13    -0.03   0.04   0.19
    25   1     0.01   0.03   0.02     0.45  -0.08   0.14    -0.28   0.05  -0.09
    26   1    -0.04  -0.29   0.11     0.06   0.13  -0.06    -0.03  -0.18   0.06
    27   1    -0.00   0.01   0.01    -0.01  -0.20   0.34    -0.03  -0.27   0.47
                     28                     29                     30
                      A                      A                      A
 Frequencies --    980.6220               986.2106              1005.2317
 Red. masses --      1.3677                 1.4719                 1.6164
 Frc consts  --      0.7749                 0.8434                 0.9623
 IR Inten    --     16.3953                38.4199               123.3615
  Atom  AN      X      Y      Z        X      Y      Z        X      Y      Z
     1   6    -0.00  -0.10  -0.06    -0.03  -0.02   0.04     0.02   0.05  -0.08
     2   1     0.45   0.04   0.17     0.06   0.00  -0.06    -0.21  -0.01   0.14
     3   1    -0.45   0.16  -0.05     0.07   0.04  -0.03    -0.21  -0.11   0.08
     4   6     0.06  -0.02  -0.03    -0.09   0.07  -0.02     0.04   0.06  -0.06
     5   1    -0.15  -0.05  -0.18     0.15  -0.14   0.02    -0.12  -0.25  -0.33
     6   1     0.03   0.14   0.26    -0.06  -0.30  -0.35    -0.02  -0.10   0.18
     7   6    -0.07  -0.03  -0.00    -0.09  -0.01  -0.07     0.04   0.02  -0.09
     8   1    -0.03   0.30  -0.01    -0.06   0.45   0.09    -0.02  -0.11   0.18
     9   1     0.15  -0.18   0.05     0.15   0.06   0.13    -0.12   0.41   0.05
    10   6     0.00   0.03   0.02     0.01   0.00  -0.01     0.03   0.02  -0.03
    11   1     0.12   0.06  -0.12    -0.01  -0.00   0.02     0.09   0.04  -0.06
    12   1    -0.12  -0.07   0.11    -0.01  -0.02   0.01     0.09   0.03  -0.06
    13   6    -0.00  -0.02  -0.01    -0.01   0.01  -0.01    -0.02  -0.00   0.00
    14   1     0.09   0.01   0.07    -0.01   0.00  -0.00    -0.01  -0.00   0.00
    15   1    -0.09   0.07  -0.02    -0.01   0.00  -0.00    -0.02  -0.00   0.00
    16   6     0.00   0.00   0.00    -0.00  -0.01   0.01    -0.02  -0.01   0.01
    17   1    -0.01  -0.00   0.00    -0.01  -0.01   0.02    -0.02  -0.01   0.02
    18   1     0.01   0.00  -0.00    -0.01  -0.01   0.02    -0.02  -0.01   0.02
    19   6     0.00  -0.00  -0.00     0.01   0.01  -0.01     0.01   0.01  -0.01
    20   1    -0.00  -0.00   0.01    -0.00   0.00  -0.01    -0.01  -0.00  -0.01
    21   1     0.00   0.01  -0.01    -0.00   0.01  -0.01    -0.01   0.01  -0.00
    22  15     0.00   0.04   0.02     0.07  -0.01   0.02    -0.03  -0.04   0.08
    23   8    -0.00   0.01   0.00    -0.01  -0.01   0.01     0.01   0.00  -0.00
    24   1    -0.15  -0.07  -0.09     0.23   0.15   0.33    -0.06   0.05   0.28
    25   1    -0.00   0.19   0.11    -0.23   0.03  -0.06     0.40  -0.06   0.11
    26   1     0.15  -0.12  -0.01     0.23  -0.36   0.04    -0.05  -0.27   0.10
    27   1     0.00   0.00   0.00     0.00   0.02  -0.03     0.00   0.02  -0.04
                     31                     32                     33
                      A                      A                      A
 Frequencies --   1035.8349              1041.7271              1051.1791
 Red. masses --      2.9486                 1.4996                 3.5516
 Frc consts  --      1.8640                 0.9588                 2.3122
 IR Inten    --     18.8865                35.2179                35.5638
  Atom  AN      X      Y      Z        X      Y      Z        X      Y      Z
     1   6    -0.01  -0.00   0.00    -0.00  -0.04  -0.02    -0.01  -0.03   0.05
     2   1    -0.00   0.00  -0.00     0.15   0.01   0.07     0.13   0.01  -0.07
     3   1    -0.00   0.00  -0.00    -0.15   0.06  -0.02     0.13   0.05  -0.04
     4   6    -0.01   0.01  -0.00    -0.01  -0.04   0.01     0.01  -0.01   0.00
     5   1     0.01  -0.02  -0.00    -0.00   0.09   0.08    -0.03   0.02  -0.01
     6   1    -0.01  -0.03  -0.03     0.01   0.06  -0.06     0.01   0.04   0.05
     7   6    -0.01   0.00  -0.01     0.01  -0.01  -0.04     0.01   0.00   0.01
     8   1    -0.01   0.03   0.01    -0.01  -0.02   0.08     0.01  -0.07  -0.01
     9   1     0.01   0.01   0.01     0.00   0.11   0.04    -0.03  -0.00  -0.02
    10   6     0.08  -0.00   0.01     0.00  -0.11  -0.06     0.29  -0.04   0.07
    11   1     0.23   0.04  -0.06    -0.23  -0.16   0.41     0.32  -0.03   0.02
    12   1     0.23   0.03  -0.06     0.23   0.27  -0.35     0.32  -0.01   0.04
    13   6    -0.14  -0.06   0.10    -0.00   0.09   0.05    -0.27   0.07  -0.11
    14   1    -0.18  -0.06   0.09    -0.28  -0.02  -0.26    -0.36   0.04  -0.04
    15   1    -0.18  -0.05   0.09     0.27  -0.23   0.11    -0.37   0.02  -0.05
    16   6     0.18   0.10  -0.17     0.00  -0.01  -0.00    -0.04  -0.07   0.11
    17   1     0.26   0.14  -0.30     0.05   0.01  -0.00     0.01  -0.05   0.10
    18   1     0.26   0.19  -0.27    -0.04   0.00   0.01     0.01  -0.06   0.10
    19   6    -0.08  -0.09   0.16    -0.00   0.01   0.00    -0.04   0.06  -0.10
    20   1     0.06  -0.04   0.16     0.00   0.01  -0.04     0.14   0.14  -0.20
    21   1     0.06  -0.12   0.12     0.00  -0.03   0.02     0.14   0.11  -0.22
    22  15     0.01  -0.01   0.01     0.00   0.06   0.03    -0.03   0.01  -0.01
    23   8    -0.08   0.06  -0.09    -0.00  -0.02  -0.01     0.07  -0.02   0.03
    24   1     0.01   0.01   0.02    -0.03  -0.05  -0.18    -0.03  -0.01  -0.02
    25   1    -0.01  -0.00   0.00     0.00   0.08   0.05    -0.18   0.02  -0.04
    26   1     0.01  -0.02   0.00     0.03  -0.18   0.04    -0.03   0.03   0.00
    27   1    -0.04  -0.23   0.39    -0.00  -0.02  -0.01     0.00  -0.07   0.11
                     34                     35                     36
                      A                      A                      A
 Frequencies --   1140.9120              1148.6843              1176.4616
 Red. masses --      3.6455                 3.5417                 1.4737
 Frc consts  --      2.7958                 2.7533                 1.2017
 IR Inten    --    186.3422                61.1765                 7.4215
  Atom  AN      X      Y      Z        X      Y      Z        X      Y      Z
     1   6    -0.01  -0.01   0.01     0.00  -0.01   0.01     0.00  -0.00  -0.00
     2   1     0.02   0.00  -0.02     0.04   0.00  -0.01     0.01  -0.00   0.01
     3   1     0.02   0.01  -0.01     0.04   0.01  -0.01    -0.01   0.01  -0.00
     4   6    -0.01  -0.00   0.00     0.01   0.00  -0.00    -0.00  -0.00   0.00
     5   1     0.02   0.02   0.03    -0.03  -0.01  -0.04    -0.01   0.01   0.00
     6   1    -0.00   0.00  -0.02     0.00   0.01   0.04     0.00   0.01  -0.01
     7   6    -0.01  -0.00   0.01     0.01   0.00  -0.00     0.00   0.00  -0.00
     8   1    -0.00   0.01  -0.01     0.00  -0.04   0.01    -0.00  -0.01   0.01
     9   1     0.02  -0.04   0.00    -0.03   0.04  -0.01     0.01   0.01   0.00
    10   6     0.02  -0.01   0.02     0.11  -0.00   0.00    -0.00   0.00   0.00
    11   1     0.05  -0.01   0.03    -0.12  -0.07   0.09    -0.14  -0.04   0.06
    12   1     0.05  -0.02   0.02    -0.12  -0.04   0.11     0.14   0.03  -0.07
    13   6    -0.11  -0.09   0.15     0.00   0.12  -0.21    -0.00  -0.03  -0.01
    14   1    -0.16  -0.08   0.13    -0.13   0.05  -0.07    -0.06  -0.05   0.12
    15   1    -0.16  -0.07   0.14    -0.13   0.03  -0.08     0.06   0.08  -0.11
    16   6    -0.26   0.05  -0.09    -0.02   0.10  -0.17     0.00   0.14   0.08
    17   1    -0.19   0.07  -0.06    -0.05   0.10  -0.18    -0.47  -0.04  -0.22
    18   1    -0.19   0.02  -0.09    -0.05   0.11  -0.18     0.47  -0.21   0.07
    19   6     0.12  -0.04   0.07     0.12  -0.07   0.11    -0.00  -0.10  -0.06
    20   1    -0.32  -0.22   0.19    -0.28  -0.23   0.28     0.01  -0.09   0.36
    21   1    -0.32  -0.06   0.29    -0.28  -0.13   0.34    -0.01   0.27  -0.26
    22  15     0.01   0.01  -0.01    -0.02   0.00  -0.00     0.00   0.01   0.00
    23   8     0.23   0.07  -0.12    -0.07  -0.12   0.21    -0.00  -0.03  -0.02
    24   1     0.01   0.00  -0.01    -0.02  -0.00   0.02    -0.00  -0.00  -0.01
    25   1    -0.04   0.00  -0.01    -0.03   0.00  -0.00     0.00   0.01   0.01
    26   1     0.01   0.01  -0.01    -0.02  -0.01   0.01     0.00  -0.01   0.00
    27   1     0.03   0.23  -0.39     0.04   0.20  -0.33     0.00   0.20   0.12
                     37                     38                     39
                      A                      A                      A
 Frequencies --   1224.8643              1268.2995              1303.7484
 Red. masses --      1.2918                 1.4093                 1.0904
 Frc consts  --      1.1418                 1.3356                 1.0920
 IR Inten    --      0.7352                 8.7702                 2.5540
  Atom  AN      X      Y      Z        X      Y      Z        X      Y      Z
     1   6     0.00  -0.01  -0.00    -0.01   0.00  -0.01    -0.00  -0.00  -0.00
     2   1     0.01  -0.00   0.01    -0.00   0.00   0.01    -0.00  -0.00   0.01
     3   1    -0.01   0.01  -0.01    -0.00  -0.01  -0.00     0.00   0.00  -0.00
     4   6    -0.00  -0.01   0.01    -0.01  -0.00   0.02    -0.00  -0.00  -0.00
     5   1    -0.02   0.01  -0.00    -0.01  -0.02   0.00     0.00   0.01   0.01
     6   1     0.01   0.01  -0.03     0.00  -0.01  -0.06    -0.00   0.00   0.00
     7   6     0.00   0.00  -0.01    -0.01  -0.01   0.01     0.00  -0.00  -0.00
     8   1    -0.01  -0.02   0.03     0.00   0.06  -0.02     0.00   0.00   0.00
     9   1     0.02   0.00   0.01    -0.01   0.01   0.02    -0.00   0.01   0.00
    10   6     0.00   0.03   0.02    -0.13  -0.05   0.08    -0.00   0.02   0.01
    11   1    -0.45  -0.12   0.14     0.55   0.17  -0.31    -0.14  -0.03   0.02
    12   1     0.44   0.06  -0.17     0.55   0.18  -0.30     0.14   0.01  -0.03
    13   6    -0.00  -0.11  -0.07    -0.03   0.03  -0.05    -0.00  -0.01  -0.01
    14   1    -0.05  -0.13   0.46     0.14   0.09  -0.14     0.19   0.06  -0.09
    15   1     0.05   0.33  -0.34     0.14   0.08  -0.15    -0.19  -0.05   0.10
    16   6     0.00  -0.03  -0.02    -0.02   0.01  -0.01     0.00   0.02   0.01
    17   1     0.07  -0.01   0.09     0.03   0.02  -0.03     0.47   0.20  -0.34
    18   1    -0.07   0.07  -0.05     0.03   0.02  -0.04    -0.47  -0.19   0.35
    19   6    -0.00   0.03   0.01     0.02  -0.00   0.01    -0.00  -0.07  -0.04
    20   1    -0.00   0.03  -0.09    -0.03  -0.02   0.02     0.01  -0.07   0.21
    21   1     0.00  -0.06   0.06    -0.03  -0.00   0.03    -0.01   0.15  -0.16
    22  15    -0.00   0.01   0.01     0.02   0.00  -0.00     0.00   0.00   0.00
    23   8     0.00   0.05   0.03     0.02  -0.02   0.03     0.00   0.02   0.01
    24   1    -0.00  -0.01  -0.03     0.01  -0.00  -0.05     0.00  -0.00   0.00
    25   1     0.00   0.02   0.01     0.04  -0.01   0.01     0.00   0.01   0.01
    26   1    -0.00  -0.03   0.01     0.01   0.05  -0.03    -0.00   0.00  -0.00
    27   1    -0.00  -0.05  -0.03     0.01   0.02  -0.03     0.00   0.09   0.05
                     40                     41                     42
                      A                      A                      A
 Frequencies --   1310.8242              1349.7493              1350.1931
 Red. masses --      1.0828                 1.2102                 1.2086
 Frc consts  --      1.0962                 1.2991                 1.2981
 IR Inten    --      2.0388                23.4655                22.5932
  Atom  AN      X      Y      Z        X      Y      Z        X      Y      Z
     1   6    -0.00  -0.00  -0.00    -0.10   0.01  -0.02     0.04  -0.01   0.00
     2   1    -0.00  -0.00   0.01     0.41   0.14   0.06    -0.15  -0.06  -0.01
     3   1     0.00   0.01  -0.01     0.41  -0.12  -0.10    -0.15   0.05   0.03
     4   6    -0.00  -0.00  -0.00    -0.02  -0.04  -0.07    -0.02  -0.03  -0.06
     5   1     0.02   0.02   0.02     0.18   0.22   0.21     0.13   0.21   0.18
     6   1    -0.00   0.01   0.01    -0.05   0.18   0.30    -0.04   0.17   0.24
     7   6     0.00  -0.01  -0.00    -0.01   0.02  -0.00     0.03  -0.10   0.00
     8   1     0.00   0.02   0.00    -0.02  -0.08   0.01     0.06   0.45   0.02
     9   1    -0.01   0.03   0.01     0.06  -0.06  -0.00    -0.21   0.39   0.12
    10   6    -0.00   0.05   0.03    -0.01  -0.00  -0.00     0.00  -0.01  -0.00
    11   1    -0.31  -0.05   0.04     0.02   0.01  -0.00    -0.00  -0.01   0.01
    12   1     0.31   0.01  -0.07     0.02   0.00  -0.01    -0.01   0.01  -0.01
    13   6    -0.00  -0.02  -0.01     0.01   0.00  -0.00    -0.00  -0.00   0.00
    14   1     0.47   0.15  -0.29    -0.03  -0.01   0.02    -0.03  -0.01   0.03
    15   1    -0.47  -0.18   0.28     0.00   0.00  -0.00     0.04   0.02  -0.03
    16   6    -0.00  -0.00  -0.00     0.00   0.00  -0.00    -0.00  -0.00   0.00
    17   1    -0.18  -0.08   0.12    -0.01  -0.00   0.01     0.00   0.00  -0.00
    18   1     0.18   0.06  -0.13    -0.01  -0.00   0.01    -0.00   0.00  -0.00
    19   6     0.00   0.02   0.01    -0.00  -0.00  -0.00     0.00  -0.00  -0.00
    20   1    -0.01   0.02  -0.07     0.00   0.00   0.00    -0.00  -0.00   0.00
    21   1     0.01  -0.05   0.06     0.00  -0.00  -0.00    -0.00   0.00   0.00
    22  15     0.00   0.01   0.00     0.00   0.00   0.00    -0.00   0.00   0.00
    23   8    -0.00  -0.03  -0.02    -0.00   0.00   0.00     0.00   0.00   0.00
    24   1     0.01  -0.00   0.01     0.14   0.03   0.33     0.10   0.02   0.28
    25   1     0.00   0.02   0.01     0.38  -0.11   0.20    -0.14   0.06  -0.06
    26   1    -0.01   0.01  -0.01     0.04  -0.06   0.02    -0.17   0.38  -0.19
    27   1    -0.00  -0.03  -0.02    -0.00  -0.00   0.00     0.00   0.00  -0.00
                     43                     44                     45
                      A                      A                      A
 Frequencies --   1371.4122              1390.5340              1417.0785
 Red. masses --      1.1910                 1.2190                 1.2512
 Frc consts  --      1.3197                 1.3888                 1.4803
 IR Inten    --      8.0834                37.7304                21.7606
  Atom  AN      X      Y      Z        X      Y      Z        X      Y      Z
     1   6    -0.07   0.00  -0.01    -0.01  -0.00   0.00    -0.00  -0.00   0.00
     2   1     0.31   0.11   0.03     0.03   0.01   0.00     0.01   0.00   0.00
     3   1     0.31  -0.08  -0.08     0.03  -0.01  -0.01     0.01  -0.01  -0.00
     4   6     0.02   0.03   0.06     0.00  -0.00   0.00     0.00  -0.00   0.00
     5   1    -0.16  -0.22  -0.20    -0.02   0.01  -0.01    -0.02   0.02  -0.01
     6   1     0.05  -0.16  -0.28     0.00   0.01  -0.01     0.01   0.02  -0.02
     7   6     0.02  -0.07   0.00     0.00  -0.00   0.00     0.00   0.00   0.00
     8   1     0.05   0.32   0.00     0.00   0.01  -0.01     0.01   0.01  -0.02
     9   1    -0.16   0.28   0.09    -0.02   0.00  -0.01    -0.02  -0.00  -0.02
    10   6     0.01   0.00  -0.00     0.02   0.02  -0.03     0.01   0.01  -0.02
    11   1    -0.07  -0.02  -0.01    -0.09  -0.02   0.07    -0.04  -0.01   0.07
    12   1    -0.07   0.02   0.01    -0.09  -0.05   0.05    -0.04  -0.06   0.04
    13   6     0.00  -0.00   0.00    -0.06  -0.02   0.03    -0.05  -0.01   0.02
    14   1    -0.01  -0.01   0.02     0.29   0.12  -0.21     0.23   0.09  -0.13
    15   1    -0.01  -0.01   0.02     0.29   0.13  -0.21     0.23   0.07  -0.14
    16   6     0.00   0.00  -0.00    -0.06  -0.04   0.07    -0.00  -0.00   0.01
    17   1    -0.02  -0.01   0.01     0.40   0.15  -0.31     0.04   0.01   0.03
    18   1    -0.02  -0.01   0.01     0.40   0.19  -0.28     0.04  -0.03   0.01
    19   6    -0.00   0.00  -0.00     0.03  -0.02   0.03     0.04   0.06  -0.11
    20   1     0.00   0.00   0.00     0.00  -0.02  -0.18    -0.26  -0.08   0.41
    21   1     0.00  -0.00  -0.00     0.00   0.16  -0.07    -0.26  -0.31   0.27
    22  15    -0.00   0.00  -0.00    -0.00   0.00  -0.00    -0.00   0.00  -0.00
    23   8    -0.00   0.00  -0.00    -0.02  -0.00   0.00     0.00  -0.01   0.01
    24   1    -0.11  -0.02  -0.31    -0.00  -0.00   0.01     0.00  -0.00   0.02
    25   1     0.27  -0.08   0.15     0.01  -0.01   0.01     0.00  -0.00   0.00
    26   1    -0.11   0.28  -0.14    -0.00  -0.01   0.01     0.00  -0.02   0.01
    27   1    -0.00  -0.00   0.00    -0.01   0.12  -0.20     0.12  -0.28   0.48
                     46                     47                     48
                      A                      A                      A
 Frequencies --   1445.1521              1445.4656              1448.4752
 Red. masses --      1.0492                 1.1496                 1.1654
 Frc consts  --      1.2911                 1.4151                 1.4406
 IR Inten    --      0.0595                 0.7532                 1.3788
  Atom  AN      X      Y      Z        X      Y      Z        X      Y      Z
     1   6     0.00  -0.03  -0.02    -0.01  -0.01   0.02     0.01   0.02  -0.03
     2   1    -0.19  -0.07   0.20    -0.03  -0.03  -0.21     0.06   0.05   0.41
     3   1     0.20   0.11  -0.14    -0.00   0.22  -0.11     0.07  -0.37   0.16
     4   6    -0.03   0.02  -0.00     0.01  -0.00  -0.00    -0.01  -0.02   0.01
     5   1     0.30  -0.30   0.04    -0.08   0.13   0.01    -0.11  -0.05  -0.08
     6   1    -0.07  -0.03   0.25     0.02  -0.07  -0.07     0.03   0.24  -0.08
     7   6     0.03   0.01   0.02     0.02   0.00   0.00    -0.01   0.00   0.02
     8   1     0.06   0.19  -0.15     0.03   0.13  -0.00     0.03  -0.04  -0.24
     9   1    -0.29  -0.11  -0.27    -0.13  -0.09  -0.15    -0.11   0.09  -0.01
    10   6     0.00  -0.00   0.00    -0.02   0.03  -0.05     0.02   0.00  -0.01
    11   1    -0.01  -0.01  -0.03     0.17   0.09   0.44    -0.08  -0.03  -0.04
    12   1    -0.01   0.03  -0.01     0.17  -0.43   0.14    -0.08   0.05   0.01
    13   6     0.00   0.00  -0.00    -0.05  -0.01   0.01    -0.07  -0.01   0.02
    14   1    -0.02  -0.01   0.02     0.17   0.07  -0.10     0.25   0.10  -0.06
    15   1    -0.01   0.00   0.00     0.17   0.06  -0.11     0.25   0.00  -0.11
    16   6    -0.00  -0.00   0.00     0.03   0.03  -0.05     0.03   0.03  -0.05
    17   1     0.01   0.00  -0.01    -0.14  -0.05   0.16    -0.15  -0.05   0.17
    18   1     0.01   0.01  -0.01    -0.14  -0.12   0.12    -0.15  -0.12   0.13
    19   6     0.00   0.00  -0.00    -0.02  -0.02   0.03    -0.02  -0.02   0.03
    20   1    -0.01  -0.00   0.00     0.10   0.04  -0.05     0.11   0.04  -0.04
    21   1    -0.01  -0.00   0.01     0.10   0.02  -0.06     0.11   0.01  -0.05
    22  15    -0.00  -0.00  -0.00     0.00  -0.00   0.00    -0.00   0.00  -0.00
    23   8    -0.00   0.00  -0.00     0.02  -0.01   0.01     0.02  -0.01   0.01
    24   1     0.18   0.05  -0.26    -0.14  -0.03   0.09     0.21   0.04   0.03
[...]
 80,-0.00000683,0.00003870,0.00000534,-0.00002236,0.00000427,-0.0001742
 8,0.00022595,-0.00004878,0.00011243,0.00020366,-0.00019200,0.00003229,
 -0.00001148,-0.00004740,0.00651032,-0.01648115,0.00018626,-0.00069367,
 0.00019572,0.00295703,-0.00029854,0.00103900,0.00020180,0.09225436,-0.
 27401539,-0.01005568,-0.10222388,0.29724359,-0.00000157,-0.00000528,-0
 .00000204,0.00000245,0.00000158,0.00000210,-0.00000103,-0.00000202,0.0
 0000019,-0.00000291,-0.00000284,-0.00000228,-0.00000069,-0.00000333,-0
 .00000138,-0.00000070,0.00000734,0.00000041,-0.00000315,-0.00000042,-0
 .00000788,-0.00000404,-0.00000223,0.00000592,0.00000310,-0.00000059,-0
 .00000009,0.00003517,-0.00014067,0.00002567,0.00007371,0.00001920,0.00
 000574,0.00000514,-0.00000997,-0.00000476,-0.00018551,0.00005505,0.000
 00644,-0.00002900,-0.00025432,0.00007344,-0.00002951,0.00003481,-0.000
 00439,-0.01269325,0.03039498,-0.00008412,0.00210363,0.00299323,-0.0046
 4093,-0.00052551,-0.00049501,0.00139804,0.00471111,-0.01222288,-0.0490
 6441,-0.00463335,0.00815833,0.05210218,0.00001841,0.00002645,-0.000037
 07,-0.00000702,0.00000148,0.00000359,-0.00000628,-0.00000558,0.0000016
 8,0.00001762,0.00002309,-0.00003072,-0.00000101,-0.00000579,-0.0000074
 9,0.00000224,-0.00000191,0.00001130,0.00001570,0.00001756,-0.00002601,
 0.00000322,-0.00000949,0.00000401,-0.00000115,0.00000674,0.00000060,0.
 00002691,0.00002502,-0.00008540,-0.00000549,0.00000323,0.00001425,-0.0
 0002952,-0.00002239,0.00001591,0.00000819,-0.00010322,0.00034927,0.000
 00405,0.00007001,-0.00004645,-0.00013068,-0.00005277,-0.00012511,0.001
 16757,0.00360171,0.00708938,-0.00010218,0.00022901,-0.00060971,0.00043
 839,-0.00062719,0.00155602,-0.08599128,-0.04904785,-0.08145411,0.00491
 173,0.00578794,0.01109368,0.08893552,0.00000349,-0.00000201,-0.0000009
 7,0.00000063,-0.00000081,-0.00000398,0.00000007,0.00000393,-0.00000156
 ,0.00000183,-0.00000778,0.00000867,-0.00000100,0.00000199,0.00000144,0
 .00000099,0.00000054,-0.00000275,0.00000164,-0.00000278,0.00000414,-0.
 00000025,0.00000144,0.00000431,0.00000083,-0.00000310,-0.00000157,-0.0
 0000194,-0.00002434,-0.00012171,-0.00000738,-0.00001158,-0.00001637,-0
 .00004046,0.00002777,-0.00000015,0.00024826,0.00006130,0.00014378,0.00
 000993,-0.00001173,0.00003517,-0.00002988,-0.00008574,-0.00008973,0.00
 797758,0.00896354,0.01590545,0.00060939,0.00117949,-0.00057878,-0.0014
 8580,-0.00091120,0.00362124,-0.05005914,-0.11222401,-0.10233462,-0.012
 72949,-0.01321553,-0.02294239,0.05493348,0.11751050,0.00000318,0.00000
 538,0.00000513,-0.00000100,0.00000029,-0.00000322,0.00000506,0.0000016
 3,-0.00000345,-0.00000327,0.00000040,0.00000803,0.00000451,0.00000424,
 0.00000345,-0.00000646,-0.00000683,0.00000526,-0.00000283,0.00000204,0
 .00000945,-0.00000201,-0.00000571,-0.00000450,0.00000017,0.00000034,0.
 00000161,0.00006990,0.00005113,0.00005752,-0.00000193,-0.00000193,-0.0
 0001599,0.00007791,0.00001903,-0.00002890,0.00006131,0.00004308,0.0001
 6886,-0.00004307,-0.00004800,-0.00000363,-0.00011052,-0.00002681,0.000
 36416,-0.01211639,-0.01414584,-0.02558660,0.00000967,0.00011762,0.0012
 5520,0.00164627,0.00358104,-0.00353237,-0.07927132,-0.10019009,-0.2095
 1223,0.00038856,-0.00018814,-0.00022732,0.08812168,0.10828637,0.230349
 06,-0.16090149,0.00681612,-0.01194971,-0.00852947,0.00060808,-0.000838
 39,-0.00860848,0.00044748,-0.00098421,-0.06567212,-0.01202825,-0.02403
 711,0.00322891,0.00808815,0.01181597,-0.00567176,-0.01386864,-0.024909
 89,-0.06576231,0.02693588,-0.00167796,-0.00569483,0.02846753,-0.000453
 27,0.00326279,-0.01430546,-0.00106016,-0.07913184,-0.02087245,0.036376
 94,0.00319738,0.00263701,-0.00688833,0.00325583,0.00468360,-0.00581805
 ,-0.00870154,-0.01403455,0.02425632,-0.00061484,0.00088891,0.00025679,
 -0.00064977,-0.00067295,-0.00068730,-0.00114544,-0.00071367,0.00123470
 ,0.00011029,0.00001742,0.00007602,0.00010912,-0.00007646,0.00002175,-0
 .00029614,-0.00000007,0.00000184,-0.00004516,0.00001115,-0.00002958,-0
 .00004512,0.00002078,-0.00002438,0.41760203,0.00768459,-0.05830485,0.0
 0059798,0.02824330,-0.00046631,0.00348702,-0.01345746,-0.00037193,-0.0
 0006464,-0.01234236,-0.07916401,-0.04012813,0.00472084,0.00494825,0.01
 016131,0.00017552,-0.00045307,0.00339358,0.02548195,-0.15589910,0.0048
 5841,0.00096544,-0.00241251,-0.00008641,0.00350827,-0.01388569,-0.0000
 0886,-0.01716824,-0.07456073,0.03285189,-0.01293497,-0.01316407,0.0229
 3153,0.00730692,0.00476028,-0.00940886,-0.00804129,-0.00040580,-0.0001
 6622,0.00294010,-0.00150221,-0.00075983,-0.00059415,-0.00030209,-0.000
 27515,-0.00150254,0.00122151,0.00004242,0.00006881,-0.00023046,-0.0000
 2582,0.00019476,-0.00004676,-0.00001009,0.00039272,-0.00009624,0.00005
 303,-0.00003906,-0.00003778,0.00001963,-0.00007976,0.00002538,-0.00002
 583,-0.00119189,0.41679477,-0.01342476,0.00057803,-0.05899517,-0.00084
 269,0.00002066,-0.00232565,-0.02485955,0.00339497,-0.00250642,-0.02217
 531,-0.03966124,-0.13551402,-0.00676130,-0.01090197,-0.01973623,-0.001
 22497,-0.00123624,-0.00436437,-0.00043826,0.00436583,-0.05872221,-0.00
 075725,0.00461688,-0.00237463,-0.00749557,0.02102361,-0.00094224,0.029
 82315,0.03287399,-0.11265737,-0.00101730,0.00092217,-0.00293425,0.0107
 1749,0.01251900,-0.02092284,0.01394912,-0.00013629,-0.00031753,-0.0010
 2394,0.00042213,0.00026017,-0.00307174,-0.00142142,-0.00091382,0.00261
 206,0.00003155,0.00116867,-0.00026779,0.00009516,-0.00002688,-0.000194
 33,-0.00012738,-0.00021162,-0.00067991,0.00005791,-0.00015585,0.000115
 03,0.00000896,0.00002925,0.00009111,-0.00001704,-0.00003404,0.00186300
 ,0.00118166,0.41536926,-0.00142868,-0.00219996,0.00382036,0.00032770,-
 0.00004435,-0.00003307,0.00032634,0.00005093,0.00002185,-0.00064064,-0
 .00090427,0.00108988,0.00019545,0.00029375,0.00038104,-0.00008681,0.00
 006225,-0.00012866,-0.00063821,-0.00048621,0.00132061,-0.00008568,0.00
 007872,-0.00011862,0.00019635,-0.00047458,-0.00006117,-0.02779550,-0.0
 2403572,0.04146687,0.00347878,-0.00054878,0.00053194,0.00347285,-0.000
 20768,0.00071883,-0.09569015,-0.02510755,0.04331621,0.00364146,-0.0017
 2603,-0.00363241,0.00372758,0.00412581,-0.00042085,-0.19017635,0.01521
 978,-0.02508629,-0.03676632,0.00301083,0.00391742,-0.03703133,-0.00461
 952,-0.00049819,-0.02155980,-0.00454709,0.00797825,0.00155611,-0.00014
 078,-0.00079819,0.00156411,0.00075065,-0.00026946,-0.00467088,0.003285
 67,-0.00568385,0.39817034,-0.00010564,0.00012735,0.00034357,-0.0000679
 3,-0.00004093,0.00000161,0.00007711,-0.00000825,0.00002491,-0.00023962
 ,0.00002163,0.00026153,0.00002881,0.00006326,0.00007553,0.00001908,-0.
 00010522,-0.00016664,-0.00007572,-0.00031534,0.00062390,-0.00020461,0.
 00044700,-0.00053061,-0.00033692,0.00003392,-0.00000087,-0.00784287,0.
 00015308,0.00571202,-0.00060600,0.00047132,-0.00048604,0.00144705,-0.0
 0023627,0.00001329,-0.00457848,-0.10576697,0.07064592,-0.01186335,-0.0
 2080242,0.03953023,0.00288721,0.01147122,-0.00005708,-0.00536990,-0.06
 782066,0.00868640,0.03010244,0.00768256,0.00004269,-0.01997580,0.00332
 282,0.00381320,-0.02350111,-0.00002235,0.00336449,-0.00010755,0.001191
 53,-0.00174413,0.00068510,0.00045616,-0.00039504,0.00148255,-0.0006387
 3,-0.00109351,0.03901618,0.17190224,0.00018929,0.00035826,-0.00029440,
 -0.00005104,0.00004380,-0.00002359,0.00003259,-0.00001741,-0.00005592,
 0.00022508,0.00042328,-0.00082773,0.00036906,-0.00002222,-0.00001115,0
 .00022344,-0.00020111,0.00085226,0.00031734,0.00045254,-0.00048290,0.0
 0009228,-0.00048460,0.00029343,0.00015513,0.00009360,0.00001893,0.0136
 6872,0.00580884,-0.00660720,-0.00133822,-0.00037054,0.00002597,-0.0001
 3626,-0.00008481,0.00073379,0.00810951,0.07083083,-0.18609193,0.003461
 70,0.01823207,-0.01085508,0.01199345,0.02115953,-0.04321263,0.01023637
 ,0.00852518,-0.07748243,0.00627561,0.00117804,0.00102106,-0.02295889,0
 .00276546,0.00564184,0.04044360,0.00321641,-0.00399130,-0.00073844,-0.
 00080288,0.00167443,-0.00027324,-0.00133397,0.00239849,-0.00252674,-0.
 00110493,0.00065151,-0.06927791,-0.13260186,0.32267998,0.00007072,0.00
 030809,0.00058970,-0.00034951,0.00000588,-0.00038408,0.00008875,0.0001
 8618,0.00001281,-0.05704811,0.05916795,-0.00282804,0.00315828,-0.01587
 297,-0.00076433,-0.00499502,0.03073109,-0.00020816,-0.00038086,-0.0005
 2628,-0.00203171,0.00016236,-0.00019117,-0.00010306,-0.00006147,0.0003
 6516,0.00001192,-0.00009331,0.00035352,0.00046128,0.00017453,0.0000920
 1,0.00005774,-0.00009439,-0.00012196,0.00007283,0.00012265,0.00007912,
 0.00033732,-0.00003191,-0.00010873,-0.00013408,-0.00016740,0.00004164,
 -0.00012479,-0.00005443,0.00004258,0.00007345,0.00000426,-0.00001666,-
 0.00001063,-0.00001053,-0.00000364,-0.00001317,-0.00000358,-0.00000429
 ,-0.00000395,-0.00000014,-0.00000264,0.00000788,-0.00000125,-0.0000019
 3,-0.00000669,0.00000485,-0.00817905,0.00118895,0.00004287,-0.00001899
 ,-0.00017395,0.05888782,-0.00000403,0.00052190,0.00031706,-0.00046972,
 0.00018341,-0.00018849,0.00005305,0.00020538,-0.00005163,0.06166078,-0
 .30480082,0.01479618,0.00290025,-0.01050738,-0.00041288,-0.00017898,-0
 .00090187,0.00023910,-0.00071105,0.00026227,-0.00178224,-0.00001033,0.
 00014852,0.00006688,-0.00001035,0.00025728,0.00007273,-0.00012533,0.00
 059238,0.00041889,0.00011719,0.00035451,-0.00034519,-0.00016643,0.0000
 8740,0.00007428,0.00019206,0.00001819,-0.00010949,-0.00004955,0.000038
 19,0.00004413,0.00006656,-0.00000976,0.00000096,0.00010554,-0.00000395
 ,-0.00000538,-0.00000924,0.00000374,-0.00000052,-0.00001479,0.00000112
 ,-0.00000453,-0.00001979,0.00000089,-0.00000284,0.00000440,-0.00000062
 ,0.00000229,0.00000392,-0.00000228,-0.00000085,0.00219558,-0.01191346,
 0.00011903,-0.00016952,-0.00003932,0.00009890,-0.06565470,0.32588101,0
 .00052345,0.00122745,0.00090181,-0.00069473,0.00008874,-0.00008460,0.0
 0033600,0.00016702,-0.00007002,-0.00164517,0.00909583,-0.04219088,-0.0
 0681528,0.02393994,0.00039816,-0.00046281,0.00574878,-0.00107546,-0.00
 215517,-0.00155184,-0.00582690,-0.00003793,0.00043222,-0.00001906,-0.0
 0018704,0.00008725,0.00001454,0.00013912,0.00095903,0.00138271,0.00010
 810,0.00040642,-0.00079383,-0.00039093,0.00010649,0.00030050,0.0000700
 6,-0.00009881,-0.00014435,-0.00014401,0.00010607,0.00010096,0.00015144
 ,0.00000521,0.00007679,0.00017797,-0.00003017,-0.00004544,-0.00002059,
 0.00001892,0.00000397,-0.00001247,0.00000229,-0.00000027,-0.00002071,-
 0.00000005,0.00000077,0.00000728,0.00000605,-0.00000347,0.00000666,-0.
 00000193,0.00000218,0.00674152,-0.02533376,0.00050512,-0.00021169,0.00
 004180,0.00015008,0.00401412,-0.01356883,0.04579851,-0.10298399,-0.059
 15874,0.10285611,0.00494859,0.00372399,-0.00838322,0.00493515,0.005365
 02,-0.00741917,0.00180167,0.00041928,-0.00010554,-0.00027188,-0.000255
 69,-0.00091995,0.00021398,0.00042998,0.00008573,0.00178786,-0.00011632
 ,-0.00041628,0.00021443,-0.00028664,-0.00032967,-0.00026778,0.00091568
 ,-0.00024050,-0.00633716,0.00143135,-0.00246446,0.00018695,0.00003414,
 -0.00032777,0.00019091,0.00026884,-0.00019993,0.00156273,-0.00098811,0
 .00168761,-0.00007655,0.00011851,0.00000415,-0.00007650,-0.00006199,-0
 .00010092,0.00044261,-0.00010139,0.00017094,-0.00003984,0.00002307,-0.
 00000087,-0.00003990,-0.00001034,-0.00002043,-0.00015139,0.00001767,-0
 .00002904,0.00001124,-0.00000268,-0.00000095,0.00001125,0.00000206,0.0
 0000179,-0.01468107,-0.01266373,0.02201956,-0.00139460,-0.00008216,0.0
 0015154,0.00000574,0.00005098,0.00002576,0.11000919,-0.05601444,-0.096
 47930,0.09272607,-0.01564081,-0.01138322,0.02274975,0.00838123,0.00637
 986,-0.01097232,-0.00014362,-0.00030394,-0.00009026,-0.00022089,0.0001
 4883,-0.00017951,0.00009478,0.00000489,-0.00016345,-0.00034026,-0.0000
 0971,-0.00028757,-0.00011722,0.00001373,0.00008352,0.00029883,-0.00008
 795,0.00015122,0.00116875,-0.00003364,0.00029945,0.00017116,0.00026870
 ,-0.00013625,-0.00008166,-0.00009170,0.00026249,-0.00005567,0.00059341
 ,-0.00015314,-0.00007845,-0.00002987,-0.00002028,0.00003146,-0.0000116
 8,0.00001165,-0.00005955,0.00002278,-0.00002370,0.00001057,-0.00000530
 ,-0.00000186,0.00000315,-0.00000115,0.00000142,0.00002490,-0.00000739,
 -0.00000006,-0.00000097,0.00000050,0.00000085,-0.00000235,-0.00000054,
 -0.00000121,0.00130870,-0.00039929,-0.00313749,0.00023968,0.00001753,-
 0.00003648,-0.00010847,-0.00002531,0.00005664,0.06100545,0.10141141,0.
 09738630,0.09272815,-0.20435817,-0.00058516,-0.00063309,-0.00048769,0.
 01322321,0.01242270,-0.01823921,0.00048800,-0.00011333,0.00021197,-0.0
 0022740,0.00000450,-0.00008520,0.00008056,0.00008831,0.00006166,0.0003
 7161,-0.00026300,-0.00008644,-0.00004101,-0.00016911,0.00005160,0.0000
 8473,-0.00004463,0.00016578,-0.00205526,0.00030722,-0.00039515,0.00000
 082,0.00005490,-0.00016331,-0.00014482,0.00007215,0.00019569,0.0001047
 4,-0.00016009,0.00077587,0.00000770,0.00002286,-0.00000698,0.00007190,
 -0.00003101,-0.00002570,0.00010461,-0.00002491,0.00005052,-0.00000983,
 0.00000392,-0.00000097,-0.00001413,-0.00000408,-0.00000511,-0.00004373
 ,0.00000026,-0.00000741,0.00000332,-0.00000183,-0.00000035,0.00000254,
 0.00000144,0.00000074,-0.00229750,-0.00314257,0.00326347,-0.00041931,-
 0.00003532,0.00006170,-0.00008137,-0.00001753,-0.00001126,-0.10605976,
 -0.10109946,0.21905975,0.00006948,-0.00066439,0.00002913,0.00008853,-0
 .00010488,-0.00015630,-0.00030557,0.00031414,-0.00017967,-0.00038142,0
 .00201418,-0.00056266,-0.00006201,-0.00019233,-0.00031000,0.00016234,0
 .00018682,0.00011433,-0.05672472,-0.02691949,-0.05206147,-0.00492282,-
 0.01522126,-0.02670415,0.00312908,0.00863648,0.01339557,-0.00008669,-0
 .00057550,-0.00007487,-0.00009563,-0.00000232,0.00014180,0.00017157,-0
 .00009190,-0.00005401,0.00012929,-0.00035153,0.00009106,-0.00017687,0.
 00009329,-0.00009602,-0.00003092,0.00017327,0.00003106,-0.00005594,-0.
 00008588,-0.00000093,-0.00001054,0.00001350,-0.00000270,0.00000445,0.0
 0001748,0.00000919,-0.00000337,0.00000595,0.00000223,-0.00000126,0.000
 00682,-0.00000175,-0.00000018,-0.00000555,0.00000601,-0.00005284,0.003
 13295,0.00769929,0.00004347,0.00016859,-0.00007206,0.00056564,0.000247
 98,0.00050657,0.00000744,0.00012382,0.00005255,0.05853604,-0.00045849,
 0.00147600,0.00067653,-0.00031537,0.00004980,0.00025814,0.00081177,-0.
 00006134,0.00021871,0.00223047,-0.00574010,0.00192903,0.00016694,0.000
 14655,0.00015367,0.00003773,0.00023894,0.00037812,-0.02915864,-0.09780
 820,-0.11089763,0.00046930,0.00155545,0.00429558,0.00440742,0.00787319
 ,0.01332488,-0.00006054,0.00179477,0.00028538,0.00042314,0.00032354,-0
 .00003584,-0.00014506,-0.00047669,0.00088189,-0.00015612,-0.00020484,0
 .00002435,-0.00017571,0.00005861,-0.00003096,0.00015065,0.00015038,0.0
 0004205,-0.00020878,-0.00004978,-0.00000261,0.00001827,-0.00000102,0.0
 0000355,0.00002264,0.00001153,0.00001432,0.00002788,-0.00000066,0.0000
 0064,-0.00000777,0.,-0.00000317,-0.00000849,0.00000086,0.00000520,-0.0
 0681702,-0.01359016,-0.02437852,0.00026957,0.00016749,-0.00007826,-0.0
 0056372,-0.00034819,-0.00190712,-0.00005101,0.00000302,0.00004093,0.02
 908038,0.10442568,0.00025898,-0.00022988,-0.00005302,0.00012245,0.0000
 3887,0.00008617,0.00007563,-0.00005253,0.00016306,-0.00046818,0.001701
 14,0.00017579,-0.00008520,0.00013679,0.00012620,-0.00000956,0.00001426
 ,-0.00010946,-0.05363835,-0.10518701,-0.24946811,-0.00007690,-0.001224
 76,-0.00360687,-0.00586169,-0.01103540,-0.01795410,0.00018018,-0.00027
 760,0.00019408,-0.00005202,-0.00006353,0.00006279,-0.00005117,0.000134
 69,0.00003778,-0.00013120,0.00001432,0.00007199,0.00001899,-0.00003581
 ,0.00000901,-0.00003077,-0.00001932,-0.00001155,-0.00000272,0.00002130
 ,0.00000124,0.00000684,-0.00000348,0.00000169,-0.00000232,-0.00000517,
 -0.00000411,0.00000675,-0.00000219,0.00000198,-0.00000008,-0.00000213,
 0.00000003,-0.00000022,0.00000153,-0.00000490,0.00149107,0.00108224,0.
 00217485,0.00004151,-0.00001832,-0.00005492,0.00004043,0.00023354,0.00
 062313,-0.00003142,-0.00003284,-0.00003957,0.05819984,0.11480963,0.267
 57881,-0.00001298,-0.00002128,0.00003692,0.00000752,-0.00000206,-0.000
 00491,0.00000747,0.00000529,-0.00000068,-0.00002119,-0.00002195,0.0000
 3801,-0.00000028,0.00000533,0.00000662,-0.00000481,0.00000237,-0.00001
 701,-0.00002119,-0.00002188,0.00003802,-0.00000483,0.00001347,-0.00001
 057,-0.00000025,-0.00000840,-0.00000127,-0.00006241,-0.00003791,0.0000
 6533,0.00001169,0.00000892,-0.00001969,0.00001140,0.00001261,-0.000017
 38,0.00028097,0.00027830,-0.00047494,-0.00002760,-0.00009725,0.0000765
 9,-0.00002752,-0.00001919,0.00012309,-0.00680114,0.00064055,-0.0010628
 9,0.00033584,-0.00042983,0.00021940,0.00033698,0.00001698,0.00048214,-
 0.30698902,-0.01705589,0.03134477,-0.01059131,-0.00107440,0.00090483,-
 0.01080376,-0.00019881,0.00146330,0.00010388,0.00009265,-0.00016026,0.
 00122153,-0.00093747,0.00160202,0.00000344,-0.00000448,-0.00000951,-0.
 00000905,0.00000189,-0.00000331,0.00000345,0.00001053,-0.00000086,0.33
 305316,-0.00002992,-0.00004510,0.00006967,0.00000661,-0.00000169,0.000
 00122,0.00000567,0.00000108,0.00000094,-0.00001036,-0.00001964,0.00002
 158,-0.00000051,0.00000479,0.00000477,-0.00000354,0.00000391,-0.000009
 99,-0.00001011,-0.00001160,0.00001967,-0.00000415,0.00000772,-0.000002
 09,0.00000265,-0.00000640,-0.00000093,-0.00012323,-0.00019945,0.000294
 33,0.00001615,-0.00000018,0.00002498,0.00002147,-0.00000472,-0.0000078
 5,-0.00088062,0.00066578,0.00008721,0.00002625,-0.00005647,-0.00008284
 ,-0.00004225,-0.00004676,0.00013461,-0.01602573,-0.00170277,-0.0013407
 0,0.00029479,0.00000119,-0.00065889,0.00020870,0.00047342,-0.00014383,
 -0.01563294,-0.04700177,0.00329462,0.03003236,0.00366582,-0.00385802,-
 0.01544794,-0.00172946,0.00291849,-0.00002755,0.00009507,-0.00012043,-
 0.00119181,-0.00173264,0.00395231,0.00000196,-0.00000319,-0.00000362,-
 0.00002723,0.00000536,-0.00000735,-0.00000064,0.00000520,0.00000165,0.
 01884191,0.04763252,0.00005132,0.00006879,-0.00012448,-0.00001035,0.00
 000252,-0.00000016,-0.00001082,-0.00000038,-0.00000291,0.00001772,0.00
 002416,-0.00003544,-0.00000276,-0.00000741,-0.00000860,0.00000682,0.00
 000013,0.00001462,0.00001783,0.00001681,-0.00004321,0.00000649,-0.0000
 1205,0.00001099,-0.00000085,0.00001111,0.00000250,0.00021137,0.0002928
 3,-0.00053342,-0.00003430,-0.00001051,-0.00001432,-0.00003050,0.000027
 68,-0.00000978,0.00151092,0.00007884,0.00056846,0.00003406,0.00014026,
 -0.00007658,-0.00000686,-0.00008813,-0.00008637,0.02747809,-0.00147599
 ,-0.00025560,-0.00040573,0.00012798,0.00092581,-0.00046223,-0.00092243
 ,0.00045010,0.02890858,0.00330526,-0.05104966,0.00087938,-0.00024344,-
 0.00128040,-0.02566617,-0.00056601,0.00432801,0.00004666,-0.00011959,0
 .00023284,0.00203489,0.00394833,-0.00621228,-0.00000043,0.00000644,0.0
 0000632,0.00004671,-0.00000718,0.00001377,-0.00000204,-0.00000850,-0.0
 0000198,-0.03461778,-0.00458951,0.05318179\\0.00000010,0.00000020,0.00
 000054,0.00000024,0.00000025,0.00000089,-0.00000015,0.00000050,0.00000
 048,0.00000056,-0.00000058,0.00000028,0.00000069,-0.00000074,0.0000002
 6,0.00000059,-0.00000078,0.00000002,-0.00000008,-0.00000019,-0.0000004
 4,-0.00000005,-0.00000037,-0.00000069,0.00000003,-0.00000033,-0.000000
 45,-0.00000003,0.00000020,0.00000022,0.00000008,0.00000024,0.00000056,
 -0.00000030,0.00000049,0.00000013,-0.00000005,-0.00000002,-0.00000014,
 -0.00000018,-0.00000008,-0.00000049,0.00000021,-0.00000033,-0.00000007
 ,-0.00000020,0.00000010,-0.00000030,-0.00000036,0.00000004,-0.00000067
 ,0.00000003,-0.00000021,-0.00000025,-0.00000040,0.00000040,-0.00000017
 ,-0.00000024,0.00000045,0.00000020,-0.00000063,0.00000070,-0.00000022,
 0.00000014,-0.00000009,0.00000013,-0.00000021,0.00000023,-0.00000004,0
 .00000070,-0.00000054,0.00000061,0.00000023,0.00000004,0.00000053,-0.0
 0000034,0.00000012,-0.00000052,-0.00000039,0.00000030,-0.00000038\\\@


 THE DIFFERENCE BETWEEN A NOOSE AND A HALO IS ONLY 12 INCHES.
 Job cpu time:       0 days  3 hours  9 minutes 21.5 seconds.
 File lengths (MBytes):  RWF=    250 Int=      0 D2E=      0 Chk=      9 Scr=      1
 Normal termination of Gaussian 09 at Sat Nov 28 11:51:46 2020.
