 Entering Gaussian System, Link 0=g09
 Initial command:
 /apps/gaussian/g09_e01/g09/l1.exe "/rds/general/user/fdp18/home/gaussian/padua/forcefield_phosphonium/Gau-499556.inp" -scrdir="/rds/general/user/fdp18/home/gaussian/padua/forcefield_phosphonium/"
 Entering Link 1 = /apps/gaussian/g09_e01/g09/l1.exe PID=    499557.
  
 Copyright (c) 1988,1990,1992,1993,1995,1998,2003,2009,2015,
            Gaussian, Inc.  All Rights Reserved.
  
 This is part of the Gaussian(R) 09 program.  It is based on
 the Gaussian(R) 03 system (copyright 2003, Gaussian, Inc.),
 the Gaussian(R) 98 system (copyright 1998, Gaussian, Inc.),
 the Gaussian(R) 94 system (copyright 1995, Gaussian, Inc.),
 the Gaussian 92(TM) system (copyright 1992, Gaussian, Inc.),
 the Gaussian 90(TM) system (copyright 1990, Gaussian, Inc.),
 the Gaussian 88(TM) system (copyright 1988, Gaussian, Inc.),
 the Gaussian 86(TM) system (copyright 1986, Carnegie Mellon
 University), and the Gaussian 82(TM) system (copyright 1983,
 Carnegie Mellon University). Gaussian is a federally registered
 trademark of Gaussian, Inc.
  
 This software contains proprietary and confidential information,
 including trade secrets, belonging to Gaussian, Inc.
  
 This software is provided under written license and may be
 used, copied, transmitted, or stored only in accord with that
 written license.
  
 The following legend is applicable only to US Government
 contracts under FAR:
  
                    RESTRICTED RIGHTS LEGEND
  
 Use, reproduction and disclosure by the US Government is
 subject to restrictions as set forth in subparagraphs (a)
 and (c) of the Commercial Computer Software - Restricted
 Rights clause in FAR 52.227-19.
  
 Gaussian, Inc.
 340 Quinnipiac St., Bldg. 40, Wallingford CT 06492
  
  
 ---------------------------------------------------------------
 Warning -- This program may not be used in any manner that
 competes with the business of Gaussian, Inc. or will provide
 assistance to any competitor of Gaussian, Inc.  The licensee
 of this program is prohibited from giving any competitor of
 Gaussian, Inc. access to this program.  By using this program,
 the user acknowledges that Gaussian, Inc. is engaged in the
 business of creating and licensing software in the field of
 computational chemistry and represents and warrants to the
 licensee that it is not a competitor of Gaussian, Inc. and that
 it will not use this program in any manner prohibited above.
 ---------------------------------------------------------------
  

 Cite this work as:
 Gaussian 09, Revision E.01,
 M. J. Frisch, G. W. Trucks, H. B. Schlegel, G. E. Scuseria, 
 M. A. Robb, J. R. Cheeseman, G. Scalmani, V. Barone, B. Mennucci, 
 G. A. Petersson, H. Nakatsuji, M. Caricato, X. Li, H. P. Hratchian, 
 A. F. Izmaylov, J. Bloino, G. Zheng, J. L. Sonnenberg, M. Hada, 
 M. Ehara, K. Toyota, R. Fukuda, J. Hasegawa, M. Ishida, T. Nakajima, 
 Y. Honda, O. Kitao, H. Nakai, T. Vreven, J. A. Montgomery, Jr., 
 J. E. Peralta, F. Ogliaro, M. Bearpark, J. J. Heyd, E. Brothers, 
 K. N. Kudin, V. N. Staroverov, T. Keith, R. Kobayashi, J. Normand, 
 K. Raghavachari, A. Rendell, J. C. Burant, S. S. Iyengar, J. Tomasi, 
 M. Cossi, N. Rega, J. M. Millam, M. Klene, J. E. Knox, J. B. Cross, 
 V. Bakken, C. Adamo, J. Jaramillo, R. Gomperts, R. E. Stratmann, 
 O. Yazyev, A. J. Austin, R. Cammi, C. Pomelli, J. W. Ochterski, 
 R. L. Martin, K. Morokuma, V. G. Zakrzewski, G. A. Voth, 
 P. Salvador, J. J. Dannenberg, S. Dapprich, A. D. Daniels, 
 O. Farkas, J. B. Foresman, J. V. Ortiz, J. Cioslowski, 
 and D. J. Fox, Gaussian, Inc., Wallingford CT, 2013.
 
 ******************************************
 Gaussian 09:  ES64L-G09RevE.01 30-Nov-2015
                28-Nov-2020 
 ******************************************
 %nprocshared=48
 Will use up to   48 processors via shared memory.
 %mem=100GB
 %chk=P1115.chk
 ----------------------------------------------------------------------
 # freq rb3lyp/6-311+g(d,p) empiricaldispersion=gd3bj int=ultrafine scf
 =conver=10 symmetry=none
 ----------------------------------------------------------------------
 1/10=4,30=1,38=1/1,3;
 2/12=2,15=3,17=6,18=5,40=1/2;
 3/5=4,6=6,7=111,11=2,16=1,25=1,30=1,71=2,74=-5,75=-5,116=1,124=41,140=1/1,2,3;
 4//1;
 5/5=2,6=10,38=5,98=1/2;
 8/6=4,10=90,11=11/1;
 11/6=1,8=1,9=11,15=111,16=1,31=1/1,2,10;
 10/6=1,31=1/2;
 6/7=2,8=2,9=2,10=2,18=1,28=1/1;
 7/8=1,10=1,25=1,30=1/1,2,3,16;
 1/10=4,30=1/3;
 99//99;
 -------------------
 Title Card Required
 -------------------
 Symbolic Z-matrix:
 Charge =  1 Multiplicity = 1
 C                    -5.11889   0.04914  -0.00903 
 H                    -5.45038   1.08882  -0.03008 
 H                    -5.45263  -0.44982  -0.92058 
 C                    -2.78349   0.80491   1.62236 
 H                    -3.25481   0.3263    2.48264 
 H                    -1.69999   0.73565   1.72588 
 C                    -2.78738  -1.74686   0.14857 
 H                    -1.70371  -1.80452   0.25723 
 H                    -3.2575   -2.2513    0.99464 
 C                    -2.59077   0.8168   -1.34454 
 H                    -2.99118   1.83611  -1.35255 
 H                    -2.98978   0.31234  -2.23093 
 C                    -1.05401   0.8326   -1.36942 
 H                    -0.66884  -0.19201  -1.352 
 H                    -0.67041   1.33287  -0.47439 
 C                     1.01139   1.57993  -2.66517 
 H                     1.39382   0.55303  -2.6398 
 H                     1.3928    2.07392  -1.7641 
 C                     1.54363   2.29561  -3.90754 
 H                     1.20392   3.3346   -3.94125 
 H                     1.20451   1.80311  -4.82322 
 P                    -3.31328  -0.01616   0.09936 
 H                    -3.07388   1.85672   1.59492 
 H                    -5.56251  -0.44991   0.85437 
 H                    -3.08164  -2.24845  -0.77512 
 H                     2.6353    2.30266  -3.91903 
 C                    -0.51855   1.54933  -2.61387 
 H                    -0.90579   2.57476  -2.63568 
 H                    -0.90466   1.05278  -3.5118 
 

 GradGradGradGradGradGradGradGradGradGradGradGradGradGradGradGradGradGrad
 Berny optimization.
 Initialization pass.
 Trust Radius=3.00D-01 FncErr=1.00D-07 GrdErr=1.00D-07
 Number of steps in this run=      2 maximum allowed number of steps=      2.
 GradGradGradGradGradGradGradGradGradGradGradGradGradGradGradGradGradGrad

                          Input orientation:                          
 ---------------------------------------------------------------------
 Center     Atomic      Atomic             Coordinates (Angstroms)
 Number     Number       Type             X           Y           Z
 ---------------------------------------------------------------------
      1          6           0       -5.118893    0.049144   -0.009034
      2          1           0       -5.450377    1.088824   -0.030077
      3          1           0       -5.452631   -0.449822   -0.920576
      4          6           0       -2.783493    0.804910    1.622360
      5          1           0       -3.254809    0.326296    2.482642
      6          1           0       -1.699995    0.735650    1.725877
      7          6           0       -2.787381   -1.746863    0.148567
      8          1           0       -1.703706   -1.804522    0.257229
      9          1           0       -3.257495   -2.251298    0.994636
     10          6           0       -2.590770    0.816802   -1.344544
     11          1           0       -2.991180    1.836113   -1.352546
     12          1           0       -2.989778    0.312344   -2.230935
     13          6           0       -1.054006    0.832605   -1.369418
     14          1           0       -0.668843   -0.192012   -1.352005
     15          1           0       -0.670410    1.332873   -0.474389
     16          6           0        1.011389    1.579933   -2.665168
     17          1           0        1.393825    0.553027   -2.639803
     18          1           0        1.392796    2.073924   -1.764097
     19          6           0        1.543632    2.295612   -3.907538
     20          1           0        1.203916    3.334597   -3.941254
     21          1           0        1.204512    1.803107   -4.823222
     22         15           0       -3.313282   -0.016158    0.099363
     23          1           0       -3.073879    1.856720    1.594918
     24          1           0       -5.562507   -0.449907    0.854375
     25          1           0       -3.081644   -2.248446   -0.775124
     26          1           0        2.635302    2.302659   -3.919028
     27          6           0       -0.518554    1.549331   -2.613868
     28          1           0       -0.905787    2.574762   -2.635678
     29          1           0       -0.904664    1.052777   -3.511802
 ---------------------------------------------------------------------
                    Distance matrix (angstroms):
                    1          2          3          4          5
     1  C    0.000000
     2  H    1.091448   0.000000
     3  H    1.091447   1.777758   0.000000
     4  C    2.947325   3.150146   3.894249   0.000000
     5  H    3.124111   3.422823   4.124884   1.091465   0.000000
     6  H    3.894878   4.156136   4.742503   1.090633   1.776995
     7  C    2.947274   3.894173   3.151022   2.946799   3.156641
     8  H    3.894929   4.742524   4.156545   3.136663   3.449459
     9  H    3.124770   4.124946   3.425197   3.155807   2.976266
    10  C    2.960455   3.158983   3.158217   2.973180   3.915213
    11  H    3.086332   2.890504   3.386862   3.155405   4.130099
    12  H    3.088567   3.391348   2.891986   3.890122   4.721042
    13  C    4.357495   4.602995   4.603692   3.455811   4.465227
    14  H    4.654532   5.123583   4.810117   3.783179   4.654071
    15  H    4.653334   4.806772   5.123155   3.023280   4.054177
    16  C    6.854102   6.995664   6.996217   5.777948   6.802352
    17  H    7.042040   7.344443   7.129895   5.973228   6.921029
    18  H    7.041454   7.127851   7.344433   5.524480   6.533700
    19  C    8.039539   8.087472   8.087462   7.178160   8.230288
    20  H    8.138456   8.038683   8.231400   7.297434   8.378338
    21  H    8.138687   8.232374   8.038897   7.645005   8.685744
    22  P    1.810040   2.409339   2.409389   1.809516   2.408467
    23  H    3.165766   2.979599   4.160085   1.091504   1.778479
    24  H    1.091476   1.778347   1.778348   3.144405   2.929029
    25  H    3.164837   4.159731   2.979561   3.893560   4.155999
    26  H    8.971840   9.054034   9.054365   7.893894   8.920807
    27  C    5.495347   5.586674   5.586498   4.861043   5.912472
    28  H    5.570302   5.445224   5.723939   4.978859   6.063885
    29  H    5.571031   5.726012   5.445756   5.472755   6.479530
                    6          7          8          9         10
     6  H    0.000000
     7  C    3.135791   0.000000
     8  H    2.934180   1.090634   0.000000
     9  H    3.447083   1.091464   1.776975   0.000000
    10  C    3.198054   2.973284   3.197483   3.915294   0.000000
    11  H    3.514949   3.890063   4.183680   4.720923   1.095165
    12  H    4.183191   3.153305   3.510849   4.128951   1.095160
    13  C    3.163472   3.458689   3.165838   4.467054   1.537046
    14  H    3.375972   3.026133   2.502151   4.055675   2.170614
    15  H    2.501577   3.788723   3.383225   4.658039   2.170548
    16  C    5.229310   5.780600   5.231317   6.804107   3.911772
    17  H    5.353898   5.526933   4.852373   6.535148   4.198126
    18  H    4.851417   5.977507   5.358771   6.924115   4.198235
    19  C    6.685055   7.179922   6.685925   8.231436   5.084201
    20  H    6.877761   7.647113   7.245141   8.687314   5.242312
    21  H    7.243363   7.297683   6.876314   8.378256   5.241961
    22  P    2.411111   1.809511   2.411202   2.408417   1.816787
    23  H    1.778062   3.893562   4.131764   4.155702   3.155195
    24  H    4.133287   3.143498   4.133026   2.928781   3.907815
    25  H    4.131440   1.091505   1.778071   1.778478   3.156097
    26  H    7.288022   7.896168   7.289517   8.922314   6.012284
    27  C    4.570696   4.862461   4.571226   5.913365   2.538082
    28  H    4.799610   5.474383   5.308833   6.480785   2.756196
    29  H    5.307202   4.978043   4.796688   6.063061   2.756020
                   11         12         13         14         15
    11  H    0.000000
    12  H    1.758817   0.000000
    13  C    2.181732   2.181764   0.000000
    14  H    3.083268   2.532515   1.094758   0.000000
    15  H    2.531874   3.083245   1.094757   1.759400   0.000000
    16  C    4.220090   4.219559   2.550161   2.772610   2.772904
    17  H    4.746747   4.409203   2.771987   2.543247   3.091641
    18  H    4.409668   4.746373   2.771910   3.091059   2.543486
    19  C    5.225289   5.224573   3.915376   4.196913   4.197066
    20  H    5.152251   5.444839   4.239400   4.759035   4.420311
    21  H    5.445227   5.151154   4.239284   4.420329   4.759075
    22  P    2.375437   2.375470   2.825252   3.021663   3.022226
    23  H    2.948696   4.126659   3.730414   4.320400   3.214515
    24  H    4.087555   4.088899   5.188128   5.374250   5.373689
    25  H    4.126163   2.947112   3.735958   3.222316   4.327857
    26  H    6.201757   6.201011   4.719381   4.871383   4.871730
    27  C    2.790530   2.789932   1.532664   2.155728   2.155756
    28  H    2.557517   3.102478   2.158818   3.059248   2.503769
    29  H    3.103151   2.556670   2.158839   2.503964   3.059282
                   16         17         18         19         20
    16  C    0.000000
    17  H    1.096101   0.000000
    18  H    1.096097   1.754990   0.000000
    19  C    1.529367   2.160139   2.160147   0.000000
    20  H    2.178143   3.076845   2.522892   1.093633   0.000000
    21  H    2.178141   2.523065   3.076855   1.093637   1.767295
    22  P    5.375213   5.475751   5.476139   6.707395   6.925260
    23  H    5.908837   6.292285   5.592973   7.196600   7.150724
    24  H    7.728100   7.848930   7.848717   8.983924   9.116195
    25  H    5.914531   5.599563   6.299331   7.200949   7.717563
    26  H    2.175222   2.497779   2.497973   1.091753   1.764725
    27  C    1.531108   2.156498   2.156517   2.546199   2.813545
    28  H    2.160120   3.061967   2.508779   2.774023   2.594749
    29  H    2.160079   2.508622   3.061950   2.774059   3.136438
                   21         22         23         24         25
    21  H    0.000000
    22  P    6.924740   0.000000
    23  H    7.713625   2.408666   0.000000
    24  H    9.116123   2.411886   3.473068   0.000000
    25  H    7.153552   2.408629   4.740206   3.470546   0.000000
    26  H    1.764732   7.543874   7.949667   9.877553   7.954883
    27  C    2.813290   4.197962   4.933361   6.439497   4.936955
    28  H    3.135946   4.470945   4.807717   6.558516   5.608864
    29  H    2.594501   4.470411   5.606282   6.558739   4.809025
                   26         27         28         29
    26  H    0.000000
    27  C    3.495390   0.000000
    28  H    3.776286   1.096328   0.000000
    29  H    3.776161   1.096327   1.756142   0.000000
 Symmetry turned off by external request.
 Stoichiometry    C8H20P
 Rotational constants (GHZ):      2.9164968      0.4610128      0.4568260
 Standard basis: 6-311+G(d,p) (5D, 7F)
   326 basis functions,   498 primitive gaussians,   335 cartesian basis functions
    41 alpha electrons       41 beta electrons
       nuclear repulsion energy       569.8242712335 Hartrees.
 NAtoms=   29 NActive=   29 NUniq=   29 SFac= 1.00D+00 NAtFMM=   60 NAOKFM=F Big=F
 Integral buffers will be    131072 words long.
 Raffenetti 2 integral format.
 Two-electron integral symmetry is turned off.
 Nuclear repulsion after empirical dispersion term =      569.7773752669 Hartrees.
 One-electron integrals computed using PRISM.
 NBasis=   326 RedAO= T EigKep=  5.73D-06  NBF=   326
 NBsUse=   326 1.00D-06 EigRej= -1.00D+00 NBFU=   326
 ExpMin= 3.48D-02 ExpMax= 7.75D+04 ExpMxC= 2.65D+03 IAcc=3 IRadAn=         5 AccDes= 0.00D+00
 Harris functional with IExCor=  402 and IRadAn=       5 diagonalized for initial guess.
 HarFok:  IExCor=  402 AccDes= 0.00D+00 IRadAn=         5 IDoV= 1 UseB2=F ITyADJ=14
 ICtDFT=  3500011 ScaDFX=  1.000000  1.000000  1.000000  1.000000
 FoFCou: FMM=F IPFlag=           0 FMFlag=      100000 FMFlg1=           0
         NFxFlg=           0 DoJE=T BraDBF=F KetDBF=T FulRan=T
         wScrn=  0.000000 ICntrl=     500 IOpCl=  0 I1Cent=   200000004 NGrid=           0
         NMat0=    1 NMatS0=      1 NMatT0=    0 NMatD0=    1 NMtDS0=    0 NMtDT0=    0
 Symmetry not used in FoFCou.
 Keep R1 ints in memory in canonical form, NReq=1439864684.
 Requested convergence on RMS density matrix=1.00D-10 within 128 cycles.
 Requested convergence on MAX density matrix=1.00D-08.
 Requested convergence on             energy=1.00D-08.
 No special actions if energy rises.
 SCF Done:  E(RB3LYP) =  -658.229263307     A.U. after   15 cycles
            NFock= 15  Conv=0.77D-10     -V/T= 2.0034
 DoSCS=F DFT=T ScalE2(SS,OS)=  1.000000  1.000000
 Range of M.O.s used for correlation:     1   326
 NBasis=   326 NAE=    41 NBE=    41 NFC=     0 NFV=     0
 NROrb=    326 NOA=    41 NOB=    41 NVA=   285 NVB=   285

 **** Warning!!: The largest alpha MO coefficient is  0.12301524D+03

 Symmetrizing basis deriv contribution to polar:
 IMax=3 JMax=2 DiffMx= 0.00D+00
 G2DrvN: will do    30 centers at a time, making    1 passes.
 Calling FoFCou, ICntrl=  3107 FMM=F I1Cent=   0 AccDes= 0.00D+00.
 End of G2Drv F.D. properties file   721 does not exist.
 End of G2Drv F.D. properties file   722 does not exist.
 End of G2Drv F.D. properties file   788 does not exist.
          IDoAtm=11111111111111111111111111111
          Differentiating once with respect to electric field.
                with respect to dipole field.
          Differentiating once with respect to nuclear coordinates.
 Keep R1 ints in memory in canonical form, NReq=1439503489.
          There are    90 degrees of freedom in the 1st order CPHF.  IDoFFX=6 NUNeed=     3.
     87 vectors produced by pass  0 Test12= 1.30D-14 1.11D-09 XBig12= 7.58D+01 1.82D+00.
 AX will form    87 AO Fock derivatives at one time.
     87 vectors produced by pass  1 Test12= 1.30D-14 1.11D-09 XBig12= 4.29D+00 3.27D-01.
     87 vectors produced by pass  2 Test12= 1.30D-14 1.11D-09 XBig12= 3.02D-02 1.76D-02.
     87 vectors produced by pass  3 Test12= 1.30D-14 1.11D-09 XBig12= 4.28D-05 8.50D-04.
     87 vectors produced by pass  4 Test12= 1.30D-14 1.11D-09 XBig12= 5.92D-08 2.50D-05.
     58 vectors produced by pass  5 Test12= 1.30D-14 1.11D-09 XBig12= 6.02D-11 1.05D-06.
      3 vectors produced by pass  6 Test12= 1.30D-14 1.11D-09 XBig12= 4.53D-14 2.29D-08.
      3 vectors produced by pass  7 Test12= 1.30D-14 1.11D-09 XBig12= 2.57D-16 2.81D-09.
 InvSVY:  IOpt=1 It=  1 EMax= 7.11D-15
 Solved reduced A of dimension   499 with    90 vectors.
 Isotropic polarizability for W=    0.000000      114.32 Bohr**3.
 End of Minotr F.D. properties file   721 does not exist.
 End of Minotr F.D. properties file   722 does not exist.
 End of Minotr F.D. properties file   788 does not exist.

 **********************************************************************

            Population analysis using the SCF density.

 **********************************************************************

 Alpha  occ. eigenvalues --  -77.28751 -10.35146 -10.35138 -10.35118 -10.35118
 Alpha  occ. eigenvalues --  -10.32015 -10.28701 -10.26900 -10.24668  -6.78265
 Alpha  occ. eigenvalues --   -4.94311  -4.94308  -4.94270  -0.99334  -0.93881
 Alpha  occ. eigenvalues --   -0.88617  -0.88617  -0.88320  -0.81806  -0.74658
 Alpha  occ. eigenvalues --   -0.72001  -0.69182  -0.64041  -0.63139  -0.61982
 Alpha  occ. eigenvalues --   -0.61409  -0.59150  -0.58653  -0.57472  -0.56625
 Alpha  occ. eigenvalues --   -0.56069  -0.55510  -0.53676  -0.53168  -0.51541
 Alpha  occ. eigenvalues --   -0.51286  -0.48901  -0.47109  -0.44635  -0.43667
 Alpha  occ. eigenvalues --   -0.43308
 Alpha virt. eigenvalues --   -0.14622  -0.12073  -0.11852  -0.11425  -0.10755
 Alpha virt. eigenvalues --   -0.10704  -0.10047  -0.08732  -0.08010  -0.07325
 Alpha virt. eigenvalues --   -0.06978  -0.06505  -0.06040  -0.05633  -0.05126
 Alpha virt. eigenvalues --   -0.04427  -0.04350  -0.03980  -0.03723  -0.03342
 Alpha virt. eigenvalues --   -0.03208  -0.02811  -0.02043  -0.01906  -0.01208
 Alpha virt. eigenvalues --   -0.00327  -0.00153   0.00905   0.01221   0.01361
 Alpha virt. eigenvalues --    0.01979   0.02929   0.03523   0.03765   0.04206
 Alpha virt. eigenvalues --    0.04550   0.04924   0.05063   0.05886   0.06713
 Alpha virt. eigenvalues --    0.06766   0.07920   0.08036   0.08762   0.08981
 Alpha virt. eigenvalues --    0.09242   0.09959   0.10992   0.11942   0.12130
 Alpha virt. eigenvalues --    0.12742   0.13369   0.14017   0.14194   0.15080
 Alpha virt. eigenvalues --    0.15887   0.16261   0.17112   0.17136   0.17564
 Alpha virt. eigenvalues --    0.18735   0.19247   0.19694   0.20382   0.20704
 Alpha virt. eigenvalues --    0.21386   0.23133   0.25736   0.27909   0.29774
 Alpha virt. eigenvalues --    0.30150   0.31689   0.33730   0.34666   0.36175
 Alpha virt. eigenvalues --    0.36433   0.37169   0.37613   0.38463   0.39214
 Alpha virt. eigenvalues --    0.39430   0.40881   0.43074   0.43252   0.45380
 Alpha virt. eigenvalues --    0.45605   0.47668   0.47782   0.48325   0.48337
 Alpha virt. eigenvalues --    0.48848   0.49945   0.51256   0.51544   0.52404
 Alpha virt. eigenvalues --    0.53389   0.53401   0.53917   0.55101   0.56349
 Alpha virt. eigenvalues --    0.56935   0.57371   0.57679   0.59850   0.60374
 Alpha virt. eigenvalues --    0.60653   0.61256   0.61776   0.62573   0.63603
 Alpha virt. eigenvalues --    0.64861   0.65577   0.66665   0.68791   0.69707
 Alpha virt. eigenvalues --    0.71191   0.71706   0.72700   0.76313   0.78661
 Alpha virt. eigenvalues --    0.80161   0.83576   0.85805   0.87165   0.87647
 Alpha virt. eigenvalues --    0.88277   0.90439   0.93202   0.95161   0.99077
 Alpha virt. eigenvalues --    1.02528   1.04069   1.10241   1.10848   1.11645
 Alpha virt. eigenvalues --    1.13452   1.16120   1.16699   1.20896   1.26878
 Alpha virt. eigenvalues --    1.27495   1.28736   1.33957   1.35256   1.37219
 Alpha virt. eigenvalues --    1.38839   1.39212   1.40178   1.40537   1.40713
 Alpha virt. eigenvalues --    1.41792   1.42945   1.43935   1.45355   1.45372
 Alpha virt. eigenvalues --    1.45895   1.46890   1.47100   1.47950   1.49408
 Alpha virt. eigenvalues --    1.49494   1.51133   1.52011   1.52591   1.53939
 Alpha virt. eigenvalues --    1.55667   1.56656   1.58865   1.59063   1.60715
 Alpha virt. eigenvalues --    1.62465   1.62571   1.63901   1.64689   1.65429
 Alpha virt. eigenvalues --    1.65749   1.67099   1.68345   1.73847   1.74359
 Alpha virt. eigenvalues --    1.75502   1.75913   1.80014   1.82326   1.86009
 Alpha virt. eigenvalues --    1.86753   1.86822   1.88068   1.90026   1.93275
 Alpha virt. eigenvalues --    1.97874   1.98836   1.99661   2.00437   2.02837
 Alpha virt. eigenvalues --    2.03457   2.04047   2.05654   2.08386   2.08977
 Alpha virt. eigenvalues --    2.11725   2.13136   2.15292   2.17178   2.20142
 Alpha virt. eigenvalues --    2.24879   2.26709   2.27412   2.27917   2.28879
 Alpha virt. eigenvalues --    2.30523   2.30838   2.32279   2.33150   2.34548
 Alpha virt. eigenvalues --    2.35865   2.35970   2.36494   2.36541   2.39491
 Alpha virt. eigenvalues --    2.40200   2.41492   2.42480   2.43937   2.44961
 Alpha virt. eigenvalues --    2.46296   2.47635   2.50368   2.50650   2.51476
 Alpha virt. eigenvalues --    2.51769   2.52728   2.53290   2.55390   2.56278
 Alpha virt. eigenvalues --    2.60749   2.62421   2.63100   2.64742   2.64756
 Alpha virt. eigenvalues --    2.67127   2.70155   2.73408   2.75582   2.80757
 Alpha virt. eigenvalues --    2.82039   2.84883   2.87169   2.90287   2.92797
 Alpha virt. eigenvalues --    2.99482   3.14379   3.16841   3.17303   3.22339
 Alpha virt. eigenvalues --    3.31446   3.54725   3.55191   3.56306   3.57122
 Alpha virt. eigenvalues --    3.60523   3.60691   3.61581   3.67199   3.68873
 Alpha virt. eigenvalues --    3.72725   3.73471   3.75221   3.94456   4.01179
 Alpha virt. eigenvalues --    4.11687   4.23098   6.98980  13.86187  13.86246
 Alpha virt. eigenvalues --   13.88559  23.68862  23.74611  23.75759  23.75936
 Alpha virt. eigenvalues --   23.76637  23.77982  23.79492  23.88438 163.14018
          Condensed to atoms (all electrons):
               1          2          3          4          5          6
     1  C    5.918365   0.363842   0.363980  -0.276059  -0.014199   0.023599
     2  H    0.363842   0.438894  -0.013261  -0.014699   0.000147  -0.000058
     3  H    0.363980  -0.013261   0.438876   0.028069  -0.000103  -0.000199
     4  C   -0.276059  -0.014699   0.028069   6.182079   0.384650   0.326305
     5  H   -0.014199   0.000147  -0.000103   0.384650   0.435371  -0.013635
     6  H    0.023599  -0.000058  -0.000199   0.326305  -0.013635   0.443850
     7  C   -0.275928   0.028094  -0.014789  -0.102295  -0.017015  -0.022363
     8  H    0.023669  -0.000199  -0.000058  -0.022511   0.000156   0.000921
     9  H   -0.014219  -0.000103   0.000148  -0.016944   0.000623   0.000157
    10  C   -0.216039  -0.015010  -0.014905   0.029041   0.008272  -0.027915
    11  H   -0.001916   0.001069  -0.000410  -0.022274  -0.000144   0.000159
    12  H   -0.002130  -0.000400   0.001055   0.012141  -0.000098  -0.000035
    13  C   -0.028075  -0.002852  -0.002814  -0.152852   0.009327   0.003459
    14  H    0.000694  -0.000002  -0.000018  -0.009766  -0.000056  -0.000336
    15  H    0.000592  -0.000018  -0.000002   0.010346   0.000223   0.002123
    16  C   -0.000001  -0.000144  -0.000143  -0.017348   0.000303  -0.000192
    17  H    0.000015   0.000000  -0.000000   0.000563  -0.000000   0.000005
    18  H    0.000016  -0.000000   0.000000  -0.001103   0.000001  -0.000001
    19  C   -0.000885   0.000009   0.000008   0.000961   0.000008  -0.000135
    20  H    0.000003  -0.000000  -0.000000   0.000043  -0.000000  -0.000000
    21  H    0.000003  -0.000000  -0.000000  -0.000037   0.000000   0.000000
    22  P    0.401268  -0.000281  -0.000350  -0.225789  -0.008659   0.055178
    23  H   -0.011735   0.001023  -0.000096   0.368946  -0.013223  -0.010944
    24  H    0.370433  -0.012738  -0.012753  -0.015538   0.000439  -0.000115
    25  H   -0.011802  -0.000096   0.001023   0.022309   0.000008  -0.000023
    26  H    0.000002   0.000000   0.000000  -0.000004  -0.000000   0.000000
    27  C   -0.042767   0.000916   0.000868   0.081992   0.000153  -0.005872
    28  H    0.000172   0.000004  -0.000004  -0.000298  -0.000001   0.000021
    29  H    0.000163  -0.000004   0.000004  -0.001243   0.000002   0.000008
               7          8          9         10         11         12
     1  C   -0.275928   0.023669  -0.014219  -0.216039  -0.001916  -0.002130
     2  H    0.028094  -0.000199  -0.000103  -0.015010   0.001069  -0.000400
     3  H   -0.014789  -0.000058   0.000148  -0.014905  -0.000410   0.001055
     4  C   -0.102295  -0.022511  -0.016944   0.029041  -0.022274   0.012141
     5  H   -0.017015   0.000156   0.000623   0.008272  -0.000144  -0.000098
     6  H   -0.022363   0.000921   0.000157  -0.027915   0.000159  -0.000035
     7  C    6.181090   0.326018   0.384886   0.025935   0.012131  -0.022087
     8  H    0.326018   0.443854  -0.013605  -0.028462  -0.000034   0.000161
     9  H    0.384886  -0.013605   0.435303   0.008680  -0.000099  -0.000147
    10  C    0.025935  -0.028462   0.008680   7.500809   0.388513   0.389474
    11  H    0.012131  -0.000034  -0.000099   0.388513   0.445524  -0.018841
    12  H   -0.022087   0.000161  -0.000147   0.389474  -0.018841   0.445346
    13  C   -0.151129   0.003954   0.009032  -1.276923  -0.038429  -0.038846
    14  H    0.010112   0.002164   0.000217  -0.076257   0.005818  -0.005713
    15  H   -0.009566  -0.000328  -0.000055  -0.075954  -0.005713   0.005812
    16  C   -0.017144  -0.000129   0.000295  -0.188182   0.001425   0.001400
    17  H   -0.001094  -0.000001   0.000001   0.005594  -0.000013   0.000053
    18  H    0.000557   0.000005  -0.000000   0.005496   0.000053  -0.000012
    19  C    0.000984  -0.000132   0.000007  -0.047797   0.000602   0.000587
    20  H   -0.000037   0.000000   0.000000   0.000943  -0.000017   0.000005
    21  H    0.000043  -0.000000  -0.000000   0.000937   0.000005  -0.000017
    22  P   -0.224066   0.055496  -0.008994  -0.921069  -0.015418  -0.015476
    23  H    0.022242  -0.000023   0.000008   0.010711   0.000510  -0.000065
    24  H   -0.015447  -0.000116   0.000440   0.025794  -0.000090  -0.000091
    25  H    0.368839  -0.010925  -0.013252   0.010599  -0.000064   0.000521
    26  H   -0.000004   0.000000  -0.000000   0.000948   0.000001   0.000001
    27  C    0.082514  -0.005941   0.000123   0.593812   0.013605   0.013299
    28  H   -0.001236   0.000008   0.000002  -0.014924   0.004020  -0.000742
    29  H   -0.000308   0.000021  -0.000001  -0.015572  -0.000732   0.004045
              13         14         15         16         17         18
     1  C   -0.028075   0.000694   0.000592  -0.000001   0.000015   0.000016
     2  H   -0.002852  -0.000002  -0.000018  -0.000144   0.000000  -0.000000
     3  H   -0.002814  -0.000018  -0.000002  -0.000143  -0.000000   0.000000
     4  C   -0.152852  -0.009766   0.010346  -0.017348   0.000563  -0.001103
     5  H    0.009327  -0.000056   0.000223   0.000303  -0.000000   0.000001
     6  H    0.003459  -0.000336   0.002123  -0.000192   0.000005  -0.000001
     7  C   -0.151129   0.010112  -0.009566  -0.017144  -0.001094   0.000557
     8  H    0.003954   0.002164  -0.000328  -0.000129  -0.000001   0.000005
     9  H    0.009032   0.000217  -0.000055   0.000295   0.000001  -0.000000
    10  C   -1.276923  -0.076257  -0.075954  -0.188182   0.005594   0.005496
    11  H   -0.038429   0.005818  -0.005713   0.001425  -0.000013   0.000053
    12  H   -0.038846  -0.005713   0.005812   0.001400   0.000053  -0.000012
    13  C    7.710435   0.449350   0.449585   0.491037  -0.010077  -0.010211
    14  H    0.449350   0.545183  -0.039531   0.009649   0.004935  -0.000843
    15  H    0.449585  -0.039531   0.544954   0.009541  -0.000841   0.004934
    16  C    0.491037   0.009649   0.009541   5.603437   0.419985   0.420018
    17  H   -0.010077   0.004935  -0.000841   0.419985   0.571518  -0.041184
    18  H   -0.010211  -0.000843   0.004934   0.420018  -0.041184   0.571522
    19  C   -0.249652   0.004209   0.004200   0.034301  -0.046597  -0.046555
    20  H    0.003041   0.000002   0.000003  -0.019093   0.008348  -0.008883
    21  H    0.003022   0.000003   0.000002  -0.019057  -0.008876   0.008349
    22  P    0.862820  -0.012772  -0.013605   0.014445   0.001454   0.001479
    23  H   -0.014913   0.000149  -0.000629  -0.000662  -0.000001   0.000006
    24  H    0.002283  -0.000008  -0.000008   0.000055   0.000000   0.000000
    25  H   -0.014977  -0.000620   0.000146  -0.000667   0.000006  -0.000001
    26  H    0.006937  -0.000011  -0.000011  -0.039975  -0.004667  -0.004661
    27  C   -1.545997  -0.047040  -0.046837  -0.349046  -0.042087  -0.041949
    28  H   -0.072531   0.008571  -0.008520  -0.071116   0.008671  -0.008990
    29  H   -0.072317  -0.008515   0.008566  -0.071033  -0.008992   0.008673
              19         20         21         22         23         24
     1  C   -0.000885   0.000003   0.000003   0.401268  -0.011735   0.370433
     2  H    0.000009  -0.000000  -0.000000  -0.000281   0.001023  -0.012738
     3  H    0.000008  -0.000000  -0.000000  -0.000350  -0.000096  -0.012753
     4  C    0.000961   0.000043  -0.000037  -0.225789   0.368946  -0.015538
     5  H    0.000008  -0.000000   0.000000  -0.008659  -0.013223   0.000439
     6  H   -0.000135  -0.000000   0.000000   0.055178  -0.010944  -0.000115
     7  C    0.000984  -0.000037   0.000043  -0.224066   0.022242  -0.015447
     8  H   -0.000132   0.000000  -0.000000   0.055496  -0.000023  -0.000116
     9  H    0.000007   0.000000  -0.000000  -0.008994   0.000008   0.000440
    10  C   -0.047797   0.000943   0.000937  -0.921069   0.010711   0.025794
    11  H    0.000602  -0.000017   0.000005  -0.015418   0.000510  -0.000090
    12  H    0.000587   0.000005  -0.000017  -0.015476  -0.000065  -0.000091
    13  C   -0.249652   0.003041   0.003022   0.862820  -0.014913   0.002283
    14  H    0.004209   0.000002   0.000003  -0.012772   0.000149  -0.000008
    15  H    0.004200   0.000003   0.000002  -0.013605  -0.000629  -0.000008
    16  C    0.034301  -0.019093  -0.019057   0.014445  -0.000662   0.000055
    17  H   -0.046597   0.008348  -0.008876   0.001454  -0.000001   0.000000
    18  H   -0.046555  -0.008883   0.008349   0.001479   0.000006   0.000000
    19  C    5.496821   0.405795   0.405753  -0.010746  -0.000021   0.000003
    20  H    0.405795   0.549716  -0.034147   0.000118  -0.000000   0.000000
    21  H    0.405753  -0.034147   0.549755   0.000119   0.000000   0.000000
    22  P   -0.010746   0.000118   0.000119  15.308757  -0.011872  -0.007728
    23  H   -0.000021  -0.000000   0.000000  -0.011872   0.429813   0.000105
    24  H    0.000003   0.000000   0.000000  -0.007728   0.000105   0.439322
    25  H   -0.000020   0.000000  -0.000000  -0.011708  -0.000213   0.000105
    26  H    0.385620  -0.023314  -0.023318  -0.000018   0.000000  -0.000000
    27  C    0.232148  -0.027421  -0.027411  -0.500918  -0.000954   0.000884
    28  H    0.007754   0.004960  -0.001086   0.005094   0.000024  -0.000000
    29  H    0.007854  -0.001085   0.004962   0.005148   0.000001  -0.000000
              25         26         27         28         29
     1  C   -0.011802   0.000002  -0.042767   0.000172   0.000163
     2  H   -0.000096   0.000000   0.000916   0.000004  -0.000004
     3  H    0.001023   0.000000   0.000868  -0.000004   0.000004
     4  C    0.022309  -0.000004   0.081992  -0.000298  -0.001243
     5  H    0.000008  -0.000000   0.000153  -0.000001   0.000002
     6  H   -0.000023   0.000000  -0.005872   0.000021   0.000008
     7  C    0.368839  -0.000004   0.082514  -0.001236  -0.000308
     8  H   -0.010925   0.000000  -0.005941   0.000008   0.000021
     9  H   -0.013252  -0.000000   0.000123   0.000002  -0.000001
    10  C    0.010599   0.000948   0.593812  -0.014924  -0.015572
    11  H   -0.000064   0.000001   0.013605   0.004020  -0.000732
    12  H    0.000521   0.000001   0.013299  -0.000742   0.004045
    13  C   -0.014977   0.006937  -1.545997  -0.072531  -0.072317
    14  H   -0.000620  -0.000011  -0.047040   0.008571  -0.008515
    15  H    0.000146  -0.000011  -0.046837  -0.008520   0.008566
    16  C   -0.000667  -0.039975  -0.349046  -0.071116  -0.071033
    17  H    0.000006  -0.004667  -0.042087   0.008671  -0.008992
    18  H   -0.000001  -0.004661  -0.041949  -0.008990   0.008673
    19  C   -0.000020   0.385620   0.232148   0.007754   0.007854
    20  H    0.000000  -0.023314  -0.027421   0.004960  -0.001085
    21  H   -0.000000  -0.023318  -0.027411  -0.001086   0.004962
    22  P   -0.011708  -0.000018  -0.500918   0.005094   0.005148
    23  H   -0.000213   0.000000  -0.000954   0.000024   0.000001
    24  H    0.000105  -0.000000   0.000884  -0.000000  -0.000000
    25  H    0.429924   0.000000  -0.000877   0.000001   0.000024
    26  H    0.000000   0.520047   0.025059   0.000024   0.000024
    27  C   -0.000877   0.025059   6.926536   0.471214   0.471403
    28  H    0.000001   0.000024   0.471214   0.554357  -0.040304
    29  H    0.000024   0.000024   0.471403  -0.040304   0.554372
 Mulliken charges:
               1
     1  C   -0.571060
     2  H    0.225868
     3  H    0.225875
     4  C   -0.568686
     5  H    0.227454
     6  H    0.226039
     7  C   -0.568934
     8  H    0.226036
     9  H    0.227499
    10  C   -0.086550
    11  H    0.230760
    12  H    0.230801
    13  C   -0.321687
    14  H    0.160433
    15  H    0.160589
    16  C   -0.211959
    17  H    0.143282
    18  H    0.143286
    19  C   -0.585084
    20  H    0.141021
    21  H    0.140997
    22  P    0.278092
    23  H    0.231813
    24  H    0.224769
    25  H    0.231740
    26  H    0.157322
    27  C   -0.229408
    28  H    0.154855
    29  H    0.154836
 Sum of Mulliken charges =   1.00000
 Mulliken charges with hydrogens summed into heavy atoms:
               1
     1  C    0.105453
     4  C    0.116621
     7  C    0.116341
    10  C    0.375011
    13  C   -0.000665
    16  C    0.074609
    19  C   -0.145744
    22  P    0.278092
    27  C    0.080283
 APT charges:
               1
     1  C   -0.282399
     2  H    0.066563
     3  H    0.066592
     4  C   -0.273934
     5  H    0.065604
     6  H    0.067522
     7  C   -0.273936
     8  H    0.067546
     9  H    0.065574
    10  C   -0.179929
    11  H    0.022875
    12  H    0.022920
    13  C    0.078663
    14  H   -0.016103
    15  H   -0.016085
    16  C    0.117659
    17  H   -0.040742
    18  H   -0.040725
    19  C    0.063770
    20  H   -0.013492
    21  H   -0.013497
    22  P    1.237223
    23  H    0.065422
    24  H    0.053591
    25  H    0.065395
    26  H   -0.014842
    27  C    0.101544
    28  H   -0.031385
    29  H   -0.031393
 Sum of APT charges =   1.00000
 APT charges with hydrogens summed into heavy atoms:
               1
     1  C   -0.095654
     4  C   -0.075386
     7  C   -0.075420
    10  C   -0.134135
    13  C    0.046474
    16  C    0.036193
    19  C    0.021939
    22  P    1.237223
    27  C    0.038766
 Electronic spatial extent (au):  <R**2>=           4099.0502
 Charge=              1.0000 electrons
 Dipole moment (field-independent basis, Debye):
    X=            -14.3939    Y=              0.5260    Z=             -0.5681  Tot=             14.4147
 Quadrupole moment (field-independent basis, Debye-Ang):
   XX=             -8.2949   YY=            -56.9561   ZZ=            -54.6800
   XY=              1.6113   XZ=             -3.8202   YZ=             -2.0270
 Traceless Quadrupole moment (field-independent basis, Debye-Ang):
   XX=             31.6821   YY=            -16.9791   ZZ=            -14.7030
   XY=              1.6113   XZ=             -3.8202   YZ=             -2.0270
 Octapole moment (field-independent basis, Debye-Ang**2):
  XXX=            127.7518  YYY=           -122.5155  ZZZ=            191.8035  XYY=            100.5198
  XXY=            -42.2923  XXZ=             72.6930  XZZ=            104.5278  YZZ=            -34.3832
  YYZ=             63.7644  XYZ=             -3.7521
 Hexadecapole moment (field-independent basis, Debye-Ang**3):
 XXXX=          -2034.6124 YYYY=           -740.8869 ZZZZ=          -1563.9106 XXXY=            -78.1488
 XXXZ=            144.4426 YYYX=            -86.7597 YYYZ=            374.1595 ZZZX=            154.4989
 ZZZY=            370.6299 XXYY=           -570.2146 XXZZ=           -706.7629 YYZZ=           -382.2261
 XXYZ=            124.1113 YYXZ=             51.2161 ZZXY=            -15.3403
 N-N= 5.697773752669D+02 E-N=-2.670485330138D+03  KE= 6.559921727051D+02
  Exact polarizability: 123.212   8.149 105.739 -14.116  -7.155 114.015
 Approx polarizability: 157.250   1.411 153.425  -2.440  -1.569 155.241
 Calling FoFJK, ICntrl=    100127 FMM=F ISym2X=0 I1Cent= 0 IOpClX= 0 NMat=1 NMatS=1 NMatT=0.
 Full mass-weighted force constant matrix:
 Low frequencies ---   -4.6503   -1.3204   -0.0014    0.0015    0.0023    9.1633
 Low frequencies ---   38.2450   48.1990   79.7432
 Diagonal vibrational polarizability:
        4.6892082       5.5824367       5.8973462
 Harmonic frequencies (cm**-1), IR intensities (KM/Mole), Raman scattering
 activities (A**4/AMU), depolarization ratios for plane and unpolarized
 incident light, reduced masses (AMU), force constants (mDyne/A),
 and normal coordinates:
                      1                      2                      3
                      A                      A                      A
 Frequencies --     38.2426                48.1984                79.7425
 Red. masses --      1.6530                 2.9031                 3.0848
 Frc consts  --      0.0014                 0.0040                 0.0116
 IR Inten    --      0.0325                 0.0259                 0.1428
  Atom  AN      X      Y      Z        X      Y      Z        X      Y      Z
     1   6     0.00   0.05   0.03     0.00   0.11   0.06    -0.01  -0.10   0.17
     2   1     0.03   0.06   0.08     0.07   0.13   0.02    -0.08  -0.12   0.21
     3   1    -0.03   0.09   0.02    -0.07   0.08   0.10    -0.09  -0.12   0.21
     4   6     0.06  -0.05  -0.01     0.11   0.06  -0.09     0.11   0.04  -0.08
     5   1     0.04  -0.03  -0.01     0.08   0.18  -0.04     0.20   0.03  -0.03
     6   1     0.06  -0.12  -0.01     0.11  -0.03  -0.10     0.12   0.09  -0.17
     7   6    -0.06  -0.03  -0.04    -0.11  -0.04   0.10     0.11   0.04  -0.07
     8   1    -0.06  -0.07  -0.10    -0.11  -0.10   0.03     0.12   0.10  -0.16
     9   1    -0.03  -0.02  -0.02    -0.08   0.06   0.18     0.20   0.01  -0.04
    10   6    -0.00  -0.02  -0.01     0.00  -0.15  -0.09    -0.13   0.04  -0.07
    11   1    -0.08  -0.05  -0.08    -0.01  -0.15  -0.17    -0.15   0.03  -0.06
    12   1     0.07  -0.10  -0.01     0.01  -0.23  -0.04    -0.15   0.03  -0.06
    13   6    -0.00   0.09   0.05     0.00  -0.13  -0.07    -0.13   0.05  -0.08
    14   1     0.08   0.13   0.22     0.02  -0.12  -0.09    -0.14   0.04  -0.07
    15   1    -0.09   0.26  -0.00    -0.01  -0.14  -0.06    -0.14   0.04  -0.08
    16   6    -0.00   0.12   0.07     0.00   0.04   0.02    -0.05  -0.05   0.08
    17   1     0.12   0.17   0.31     0.08   0.06  -0.05    -0.11  -0.07   0.12
    18   1    -0.12   0.35  -0.00    -0.07  -0.01   0.08    -0.11  -0.07   0.12
    19   6     0.00  -0.07  -0.04    -0.00   0.19   0.11     0.13  -0.08   0.14
    20   1    -0.13  -0.12  -0.28    -0.07   0.17   0.19     0.21  -0.06   0.11
    21   1     0.13  -0.31   0.04     0.07   0.25   0.05     0.20  -0.05   0.10
    22  15    -0.00  -0.01  -0.01    -0.00  -0.01  -0.01     0.00   0.01  -0.02
    23   1     0.12  -0.03   0.00     0.21   0.09  -0.17     0.06   0.03  -0.06
    24   1     0.00   0.03   0.02    -0.00   0.18   0.11     0.12  -0.12   0.22
    25   1    -0.12  -0.02  -0.03    -0.21  -0.10   0.16     0.06   0.03  -0.05
    26   1     0.00   0.07   0.04    -0.00   0.27   0.15     0.13  -0.15   0.26
    27   6    -0.00  -0.05  -0.03     0.00  -0.08  -0.04    -0.06   0.03  -0.06
    28   1    -0.12  -0.10  -0.23    -0.07  -0.10  -0.04    -0.01   0.05  -0.08
    29   1     0.12  -0.25   0.03     0.07  -0.08  -0.07    -0.01   0.05  -0.08
                      4                      5                      6
                      A                      A                      A
 Frequencies --    112.5377               125.5879               165.3361
 Red. masses --      1.8662                 2.0044                 1.0517
 Frc consts  --      0.0139                 0.0186                 0.0169
 IR Inten    --      0.2553                 0.0492                 0.0755
  Atom  AN      X      Y      Z        X      Y      Z        X      Y      Z
     1   6     0.00   0.00   0.00     0.00   0.01   0.00    -0.00  -0.02  -0.01
     2   1     0.02   0.01   0.03     0.02   0.01  -0.05    -0.04  -0.02   0.37
     3   1    -0.02   0.03  -0.01    -0.02  -0.04   0.03     0.04   0.32  -0.21
     4   6     0.04   0.02  -0.06     0.02   0.02  -0.04    -0.02   0.01   0.01
     5   1    -0.05   0.15  -0.04     0.01   0.07  -0.02    -0.26   0.18  -0.01
     6   1     0.03  -0.12  -0.01     0.02   0.00  -0.04    -0.05  -0.23   0.17
     7   6    -0.04  -0.04   0.05    -0.02  -0.02   0.04     0.02   0.02  -0.00
     8   1    -0.03  -0.07  -0.10    -0.02  -0.03   0.02     0.05   0.04  -0.29
     9   1     0.05   0.04   0.15    -0.01   0.02   0.07     0.26   0.08   0.17
    10   6     0.00  -0.08  -0.05     0.00  -0.03  -0.02    -0.00   0.02   0.01
    11   1    -0.15  -0.14  -0.18     0.06  -0.00   0.05     0.03   0.03   0.04
    12   1     0.15  -0.23  -0.03    -0.06   0.04  -0.03    -0.03   0.04   0.01
    13   6    -0.00   0.14   0.08     0.00  -0.11  -0.07    -0.00  -0.03  -0.02
    14   1     0.14   0.20   0.18    -0.07  -0.14  -0.34    -0.03  -0.04  -0.05
    15   1    -0.14   0.26   0.08     0.07  -0.36   0.04     0.03  -0.06  -0.01
    16   6    -0.00  -0.05  -0.03    -0.00   0.11   0.07    -0.00   0.00   0.00
    17   1    -0.13  -0.11  -0.14    -0.03   0.11   0.21     0.01   0.01   0.01
    18   1     0.13  -0.18  -0.02     0.03   0.23  -0.01    -0.01   0.01   0.00
    19   6     0.00  -0.03  -0.02     0.00  -0.10  -0.06     0.00   0.00   0.00
    20   1     0.19   0.04   0.12    -0.03  -0.12  -0.27    -0.03  -0.01  -0.02
    21   1    -0.19   0.12  -0.03     0.03  -0.29   0.03     0.03  -0.02   0.00
    22  15     0.00  -0.03  -0.02     0.00  -0.02  -0.01    -0.00   0.01   0.00
    23   1     0.18   0.05  -0.16     0.04   0.03  -0.08     0.22   0.07  -0.11
    24   1    -0.00  -0.02  -0.01     0.00   0.06   0.04    -0.00  -0.36  -0.21
    25   1    -0.18  -0.11   0.12    -0.04  -0.05   0.06    -0.23  -0.06   0.12
    26   1     0.00  -0.23  -0.13     0.00  -0.07  -0.04     0.00   0.04   0.02
    27   6    -0.00   0.13   0.07    -0.00   0.16   0.09    -0.00  -0.02  -0.01
    28   1     0.11   0.17   0.13     0.03   0.18   0.33    -0.01  -0.02  -0.01
    29   1    -0.11   0.19   0.08    -0.04   0.38  -0.01     0.01  -0.01  -0.01
                      7                      8                      9
                      A                      A                      A
 Frequencies --    176.2645               189.8482               191.9688
 Red. masses --      2.9822                 1.0652                 1.0509
 Frc consts  --      0.0546                 0.0226                 0.0228
 IR Inten    --      0.9832                 0.1156                 0.0269
  Atom  AN      X      Y      Z        X      Y      Z        X      Y      Z
     1   6     0.03   0.05  -0.08     0.01   0.02  -0.02    -0.00   0.02   0.02
     2   1     0.09   0.06  -0.11     0.02   0.02   0.04    -0.01   0.03   0.45
     3   1     0.09   0.07  -0.11     0.03   0.08  -0.06    -0.00   0.40  -0.19
     4   6    -0.05  -0.11   0.12     0.03  -0.00  -0.00    -0.00   0.02  -0.02
     5   1    -0.04  -0.22   0.06    -0.24   0.23  -0.02     0.25  -0.17   0.02
     6   1    -0.05  -0.06   0.14    -0.01  -0.32   0.16     0.03   0.30  -0.17
     7   6    -0.05  -0.05   0.15     0.03   0.00   0.01    -0.01  -0.01   0.02
     8   1    -0.05  -0.09   0.12    -0.02   0.02   0.44    -0.03  -0.01   0.22
     9   1    -0.05   0.06   0.22    -0.30  -0.11  -0.24    -0.17  -0.04  -0.09
    10   6    -0.02  -0.01   0.02    -0.02  -0.01  -0.00     0.00  -0.04  -0.02
    11   1    -0.08  -0.03   0.05    -0.03  -0.01  -0.00    -0.02  -0.05  -0.07
    12   1    -0.08  -0.03   0.05    -0.02  -0.02   0.00     0.03  -0.08  -0.01
    13   6    -0.03   0.08  -0.13    -0.02   0.00  -0.01     0.00  -0.00   0.00
    14   1     0.02   0.09  -0.15    -0.02   0.01  -0.01     0.02   0.00   0.01
    15   1     0.02   0.09  -0.16    -0.02   0.00  -0.01    -0.02   0.01   0.00
    16   6    -0.06   0.04  -0.07    -0.03  -0.00   0.01     0.00   0.00   0.00
    17   1    -0.12   0.01  -0.02    -0.04  -0.01   0.01    -0.00   0.00   0.00
    18   1    -0.12   0.01  -0.02    -0.03  -0.01   0.01     0.01   0.00  -0.00
    19   6     0.18  -0.01   0.01    -0.00  -0.01   0.01     0.00  -0.00  -0.01
    20   1     0.29   0.03  -0.04     0.01  -0.01   0.01     0.02   0.00  -0.00
    21   1     0.29   0.03  -0.04     0.01  -0.01   0.01    -0.02   0.00  -0.00
    22  15     0.02  -0.03   0.05     0.01  -0.00   0.00    -0.00  -0.00  -0.00
    23   1    -0.11  -0.12   0.22     0.35   0.08  -0.15    -0.29  -0.06   0.10
    24   1    -0.08   0.07  -0.12    -0.01  -0.04  -0.06     0.00  -0.34  -0.19
    25   1    -0.10  -0.13   0.21     0.42   0.10  -0.17     0.17   0.03  -0.06
    26   1     0.19  -0.11   0.20    -0.00  -0.02   0.03     0.00  -0.02  -0.02
    27   6    -0.07   0.09  -0.16    -0.03   0.01  -0.01     0.00   0.01   0.01
    28   1    -0.06   0.09  -0.16    -0.02   0.01  -0.00     0.01   0.02   0.03
    29   1    -0.06   0.08  -0.16    -0.03   0.01  -0.01    -0.00   0.03   0.00
                     10                     11                     12
                      A                      A                      A
 Frequencies --    214.2109               228.6531               245.1642
 Red. masses --      2.5698                 2.2239                 1.1197
 Frc consts  --      0.0695                 0.0685                 0.0397
 IR Inten    --      0.1449                 0.0204                 0.0006
  Atom  AN      X      Y      Z        X      Y      Z        X      Y      Z
     1   6    -0.05  -0.12   0.20     0.00   0.15   0.09    -0.00   0.01   0.00
     2   1    -0.17  -0.16   0.27     0.17   0.21   0.07     0.01   0.01   0.01
     3   1    -0.17  -0.16   0.27    -0.17   0.16   0.15    -0.01   0.01   0.01
     4   6    -0.12   0.03   0.02    -0.15  -0.04   0.07    -0.00  -0.00  -0.00
     5   1    -0.29   0.13  -0.02    -0.28  -0.09  -0.03    -0.00  -0.01  -0.00
     6   1    -0.14  -0.05   0.18    -0.16  -0.03   0.24    -0.00   0.01  -0.00
     7   6    -0.12  -0.03  -0.02     0.15   0.03  -0.07     0.00  -0.00   0.00
     8   1    -0.14  -0.14   0.13     0.16   0.19  -0.14     0.00   0.00   0.01
     9   1    -0.29  -0.04  -0.11     0.27  -0.08  -0.07     0.00  -0.00  -0.00
    10   6     0.03   0.01  -0.01     0.00  -0.13  -0.07    -0.00  -0.01  -0.00
    11   1     0.04   0.01  -0.01    -0.07  -0.16  -0.26    -0.03  -0.02  -0.03
    12   1     0.04   0.01  -0.01     0.07  -0.30  -0.01     0.03  -0.03  -0.00
    13   6     0.06   0.02  -0.03     0.00  -0.03  -0.02    -0.00   0.03   0.02
    14   1     0.06   0.01  -0.03     0.07  -0.00  -0.01     0.02   0.03   0.02
    15   1     0.06   0.01  -0.03    -0.07  -0.01   0.00    -0.02   0.04   0.02
    16   6     0.10   0.04  -0.07     0.00   0.01   0.00     0.00  -0.07  -0.04
    17   1     0.11   0.05  -0.08    -0.01   0.01   0.01    -0.05  -0.09  -0.14
    18   1     0.11   0.04  -0.08     0.01   0.01   0.00     0.05  -0.17  -0.01
    19   6     0.10   0.05  -0.08     0.00  -0.01  -0.00    -0.00   0.01   0.01
    20   1     0.11   0.05  -0.08     0.05   0.01   0.01    -0.46  -0.14  -0.20
    21   1     0.11   0.05  -0.08    -0.05   0.01   0.00     0.46  -0.24  -0.02
    22  15    -0.03  -0.00   0.00    -0.00  -0.01  -0.00    -0.00  -0.00  -0.00
    23   1    -0.03   0.05  -0.09    -0.17  -0.05   0.07    -0.01  -0.00   0.00
    24   1     0.17  -0.17   0.29     0.00   0.29   0.17     0.00   0.01   0.01
    25   1    -0.04   0.05  -0.09     0.17   0.04  -0.08     0.01  -0.00  -0.00
    26   1     0.11   0.04  -0.06     0.00  -0.06  -0.03    -0.00   0.50   0.29
    27   6     0.08   0.02  -0.04     0.00   0.01   0.01     0.00   0.04   0.02
    28   1     0.08   0.02  -0.04    -0.00   0.01   0.04     0.09   0.07   0.09
    29   1     0.08   0.02  -0.04     0.00   0.04  -0.01    -0.09   0.12   0.01
                     13                     14                     15
                      A                      A                      A
 Frequencies --    251.1994               273.9319               311.9837
 Red. masses --      2.5323                 2.3675                 3.1247
 Frc consts  --      0.0941                 0.1047                 0.1792
 IR Inten    --      1.2294                 2.1731                 3.8317
  Atom  AN      X      Y      Z        X      Y      Z        X      Y      Z
     1   6     0.09   0.02  -0.03    -0.00  -0.11  -0.06     0.16  -0.02   0.04
     2   1     0.13   0.03  -0.06    -0.22  -0.18  -0.13     0.09  -0.05   0.08
     3   1     0.14   0.03  -0.06     0.21  -0.20  -0.09     0.09  -0.04   0.08
     4   6    -0.06   0.19  -0.00     0.06  -0.02   0.12    -0.09  -0.04   0.04
     5   1    -0.07   0.32   0.07     0.07  -0.12   0.07    -0.27  -0.18  -0.13
     6   1    -0.06   0.35   0.08     0.07  -0.10   0.07    -0.11   0.03   0.30
     7   6    -0.06  -0.09  -0.16    -0.06   0.10  -0.08    -0.09  -0.02   0.05
     8   1    -0.06  -0.25  -0.27    -0.06   0.01  -0.12    -0.11  -0.27   0.12
     9   1    -0.07  -0.22  -0.24    -0.07   0.01  -0.13    -0.26   0.20   0.09
    10   6     0.02  -0.04   0.07    -0.00  -0.13  -0.08    -0.02   0.06  -0.11
    11   1     0.00  -0.05   0.08    -0.07  -0.16  -0.40    -0.03   0.06  -0.09
    12   1     0.00  -0.05   0.08     0.07  -0.42   0.06    -0.03   0.05  -0.09
    13   6     0.01   0.00   0.00    -0.00  -0.04  -0.02    -0.05   0.03  -0.05
    14   1     0.04   0.01  -0.02     0.06  -0.02  -0.02    -0.08   0.02  -0.03
    15   1     0.04   0.01  -0.02    -0.06  -0.03  -0.01    -0.08   0.01  -0.03
    16   6    -0.08   0.00  -0.00     0.00   0.01   0.00    -0.02  -0.05   0.09
    17   1    -0.10  -0.01   0.02    -0.01   0.00   0.00    -0.03  -0.06   0.09
    18   1    -0.10  -0.01   0.02     0.01   0.00   0.00    -0.03  -0.05   0.09
    19   6     0.02  -0.02   0.03    -0.00  -0.00  -0.00    -0.14  -0.04   0.07
    20   1     0.06  -0.01   0.01    -0.00  -0.01  -0.02    -0.21  -0.06   0.11
    21   1     0.06  -0.01   0.01     0.00  -0.02   0.00    -0.21  -0.06   0.11
    22  15     0.07  -0.04   0.07    -0.00   0.11   0.06     0.14   0.05  -0.09
    23   1    -0.19   0.15  -0.26     0.12  -0.00   0.27    -0.18  -0.06   0.11
    24   1    -0.01   0.04  -0.07    -0.00  -0.20  -0.11     0.28  -0.05   0.08
    25   1    -0.20   0.15  -0.26    -0.12   0.23  -0.13    -0.18  -0.06   0.10
    26   1     0.02  -0.06   0.11    -0.00  -0.00  -0.00    -0.14   0.03  -0.05
    27   6    -0.07   0.01  -0.02     0.00   0.02   0.01    -0.00  -0.00   0.01
    28   1    -0.09   0.01  -0.01     0.01   0.02   0.07     0.04   0.01  -0.02
    29   1    -0.09   0.00  -0.01    -0.01   0.08  -0.02     0.04   0.01  -0.02
                     16                     17                     18
                      A                      A                      A
 Frequencies --    361.8181               452.9156               636.4116
 Red. masses --      3.0803                 3.0492                 3.8036
 Frc consts  --      0.2376                 0.3685                 0.9077
 IR Inten    --      2.7375                 0.4903                 0.4913
  Atom  AN      X      Y      Z        X      Y      Z        X      Y      Z
     1   6     0.00   0.02  -0.04     0.09   0.01  -0.01     0.22  -0.01   0.02
     2   1     0.10   0.05  -0.10     0.11   0.01  -0.03     0.21  -0.02   0.03
     3   1     0.10   0.06  -0.10     0.11   0.02  -0.03     0.21  -0.02   0.03
     4   6     0.01   0.04   0.05    -0.00  -0.00  -0.00    -0.08  -0.13  -0.22
     5   1     0.03   0.10   0.09    -0.06  -0.06  -0.06    -0.04  -0.07  -0.16
     6   1     0.01   0.07   0.04    -0.01   0.03   0.09    -0.08  -0.13  -0.28
     7   6     0.01  -0.06  -0.01    -0.00   0.00   0.00    -0.08   0.25   0.00
     8   1     0.01  -0.07  -0.04    -0.01  -0.10   0.02    -0.08   0.30  -0.03
     9   1     0.02  -0.13  -0.04    -0.06   0.08   0.02    -0.04   0.18  -0.02
    10   6    -0.18   0.02  -0.04    -0.15   0.03  -0.05    -0.05  -0.11   0.19
    11   1    -0.26  -0.01   0.02    -0.13   0.03  -0.04    -0.12  -0.14   0.21
    12   1    -0.26  -0.01   0.01    -0.13   0.02  -0.05    -0.12  -0.11   0.22
    13   6    -0.15   0.06  -0.10    -0.15  -0.09   0.16    -0.04   0.01  -0.01
    14   1    -0.21   0.04  -0.05    -0.24  -0.13   0.22     0.02   0.03  -0.03
    15   1    -0.21   0.02  -0.06    -0.24  -0.12   0.22     0.02   0.02  -0.04
    16   6     0.21  -0.03   0.05    -0.00   0.06  -0.11     0.05  -0.01   0.01
    17   1     0.25  -0.01   0.01     0.06   0.09  -0.13     0.04  -0.01   0.01
    18   1     0.25   0.00   0.01     0.06   0.07  -0.14     0.04  -0.00   0.01
    19   6    -0.04   0.03  -0.05     0.14   0.07  -0.11     0.01   0.01  -0.01
    20   1    -0.18  -0.02   0.02     0.28   0.11  -0.17    -0.03  -0.01   0.01
    21   1    -0.18  -0.01   0.03     0.28   0.10  -0.18    -0.03  -0.00   0.01
    22  15    -0.00  -0.05   0.09     0.05   0.01  -0.02    -0.02  -0.02   0.03
    23   1    -0.01   0.03  -0.04    -0.05  -0.01   0.03    -0.06  -0.12  -0.25
    24   1    -0.17   0.06  -0.11     0.04   0.02  -0.03     0.23  -0.01   0.02
    25   1    -0.01   0.02  -0.05    -0.05  -0.02   0.03    -0.06   0.28  -0.02
    26   1    -0.04   0.16  -0.28     0.15  -0.06   0.10     0.01   0.04  -0.07
    27   6     0.17   0.01  -0.02    -0.04  -0.09   0.16     0.01   0.02  -0.03
    28   1     0.27   0.05  -0.09    -0.12  -0.12   0.19     0.04   0.03  -0.05
    29   1     0.27   0.06  -0.08    -0.12  -0.11   0.20     0.04   0.03  -0.05
                     19                     20                     21
                      A                      A                      A
 Frequencies --    718.4991               744.4461               756.2520
 Red. masses --      1.2140                 1.1506                 3.6198
 Frc consts  --      0.3692                 0.3757                 1.2197
 IR Inten    --      2.1727                 3.7741                 4.4481
  Atom  AN      X      Y      Z        X      Y      Z        X      Y      Z
     1   6    -0.00  -0.00  -0.00    -0.00   0.00   0.00     0.29  -0.02   0.04
     2   1    -0.01  -0.00   0.00    -0.02  -0.00  -0.01     0.37  -0.00  -0.02
     3   1     0.01  -0.00  -0.00     0.02  -0.01   0.00     0.37   0.01  -0.01
     4   6     0.02   0.03   0.04    -0.02  -0.02  -0.03    -0.04   0.01   0.05
     5   1    -0.02  -0.03  -0.02     0.00  -0.00  -0.02     0.14   0.11   0.20
     6   1     0.02   0.02   0.11    -0.02  -0.03  -0.07    -0.01  -0.08  -0.21
     7   6    -0.02   0.05   0.01     0.02  -0.04  -0.00    -0.04  -0.05   0.02
     8   1    -0.02   0.10  -0.04     0.01  -0.07   0.01    -0.02   0.22  -0.03
     9   1     0.02  -0.03  -0.02    -0.00  -0.01   0.01     0.14  -0.22   0.01
    10   6     0.00  -0.08  -0.05     0.00   0.03   0.02     0.04   0.12  -0.21
    11   1     0.27   0.03   0.40    -0.04   0.02  -0.12     0.15   0.16  -0.25
    12   1    -0.27   0.36  -0.17     0.04  -0.09   0.07     0.15   0.14  -0.27
    13   6     0.00  -0.04  -0.02     0.00  -0.01  -0.00     0.06  -0.00   0.00
    14   1     0.28   0.07   0.33    -0.03  -0.01   0.15     0.01  -0.02   0.01
    15   1    -0.28   0.32  -0.10     0.02   0.12  -0.09     0.01  -0.00   0.02
    16   6     0.00   0.00   0.00    -0.00  -0.05  -0.03    -0.04   0.01  -0.02
    17   1     0.02   0.01   0.01     0.26   0.06   0.38    -0.04   0.01  -0.01
    18   1    -0.02   0.02   0.00    -0.26   0.36  -0.14    -0.04   0.01  -0.02
    19   6    -0.00   0.00   0.00     0.00  -0.01  -0.00    -0.02  -0.01   0.02
    20   1     0.01   0.00  -0.01    -0.03  -0.01   0.21     0.02   0.00   0.00
    21   1    -0.01  -0.01   0.01     0.03   0.18  -0.11     0.02   0.00  -0.00
    22  15     0.00  -0.02  -0.01     0.00   0.02   0.01    -0.16  -0.03   0.05
    23   1    -0.00   0.02   0.10     0.00  -0.01  -0.05     0.10   0.05   0.03
    24   1    -0.00  -0.01  -0.01    -0.00  -0.00  -0.00     0.16   0.01  -0.01
    25   1     0.00   0.10  -0.03    -0.00  -0.05   0.01     0.10  -0.05  -0.03
    26   1    -0.00  -0.01  -0.00    -0.00   0.06   0.04    -0.02  -0.05   0.08
    27   6     0.00  -0.01  -0.00     0.00  -0.05  -0.03     0.02  -0.01   0.02
    28   1     0.04   0.01   0.18     0.27   0.07   0.33    -0.01  -0.02   0.03
    29   1    -0.04   0.17  -0.08    -0.27   0.32  -0.11    -0.01  -0.02   0.03
                     22                     23                     24
                      A                      A                      A
 Frequencies --    764.2172               770.1730               813.4556
 Red. masses --      2.5390                 2.9073                 1.1941
 Frc consts  --      0.8737                 1.0160                 0.4656
 IR Inten    --      4.8426                 4.2432                 0.0833
  Atom  AN      X      Y      Z        X      Y      Z        X      Y      Z
     1   6     0.00   0.04   0.02     0.13   0.03  -0.05     0.00   0.03   0.02
     2   1    -0.24  -0.04  -0.06    -0.10  -0.04   0.14    -0.17  -0.03  -0.05
     3   1     0.24  -0.07  -0.00    -0.10  -0.10   0.10     0.17  -0.06  -0.00
     4   6    -0.06  -0.06  -0.18     0.01   0.09   0.11     0.03   0.02  -0.02
     5   1    -0.10  -0.23  -0.30     0.11   0.02   0.12    -0.11  -0.12  -0.17
     6   1    -0.08  -0.18  -0.16     0.02  -0.06  -0.04     0.01   0.03   0.17
     7   6     0.06  -0.19   0.04     0.01  -0.15  -0.02    -0.03  -0.01   0.03
     8   1     0.07  -0.23  -0.08     0.02   0.06   0.03    -0.01   0.17  -0.06
     9   1     0.10  -0.38  -0.05     0.11  -0.12   0.05     0.11  -0.21  -0.02
    10   6     0.00  -0.02  -0.01    -0.03  -0.10   0.18     0.00  -0.05  -0.03
    11   1     0.15   0.05   0.09    -0.10  -0.13   0.19     0.00  -0.05   0.20
    12   1    -0.15   0.10  -0.01    -0.10  -0.10   0.21    -0.00   0.15  -0.14
    13   6     0.00  -0.03  -0.02    -0.05  -0.00   0.00    -0.00   0.04   0.03
    14   1     0.12   0.02   0.15    -0.01   0.02  -0.01    -0.01   0.03  -0.28
    15   1    -0.12   0.14  -0.05    -0.01   0.00  -0.02     0.01  -0.22   0.17
    16   6    -0.00   0.03   0.02     0.04  -0.01   0.02     0.00  -0.05  -0.03
    17   1    -0.11  -0.02  -0.21     0.03  -0.01   0.01     0.03  -0.03   0.28
    18   1     0.11  -0.19   0.09     0.03  -0.01   0.02    -0.03   0.23  -0.16
    19   6    -0.00   0.01   0.00     0.02   0.01  -0.01     0.00  -0.02  -0.01
    20   1     0.03   0.01  -0.14    -0.03  -0.01   0.00    -0.07  -0.04   0.27
    21   1    -0.03  -0.12   0.08    -0.03  -0.00   0.01     0.07   0.22  -0.17
    22  15     0.00   0.12   0.07    -0.07   0.06  -0.11     0.00   0.00   0.00
    23   1    -0.01  -0.04   0.04     0.15   0.14   0.29    -0.06  -0.01   0.09
    24   1    -0.00  -0.08  -0.05     0.57  -0.07   0.12     0.00  -0.07  -0.04
    25   1     0.01   0.02  -0.06     0.15  -0.31   0.02     0.06   0.08  -0.05
    26   1    -0.00  -0.05  -0.03     0.02   0.05  -0.09     0.00   0.11   0.06
    27   6     0.00   0.01   0.00    -0.02   0.01  -0.03    -0.00   0.04   0.02
    28   1    -0.09  -0.03   0.00     0.01   0.03  -0.04    -0.01   0.03  -0.26
    29   1     0.09  -0.01  -0.02     0.01   0.02  -0.04     0.01  -0.21   0.16
                     25                     26                     27
                      A                      A                      A
 Frequencies --    818.5076               882.6346               885.6163
 Red. masses --      1.1738                 1.4507                 1.2586
 Frc consts  --      0.4633                 0.6659                 0.5816
 IR Inten    --      0.0037                 8.2333                 9.7374
  Atom  AN      X      Y      Z        X      Y      Z        X      Y      Z
     1   6     0.00   0.06   0.03    -0.03   0.05  -0.09    -0.00  -0.01  -0.01
     2   1    -0.33  -0.06  -0.10    -0.32  -0.04   0.17     0.03   0.01   0.02
     3   1     0.33  -0.12  -0.00    -0.32  -0.12   0.12    -0.04   0.01   0.00
     4   6     0.05  -0.05   0.01    -0.04  -0.04   0.01    -0.04  -0.06   0.02
     5   1    -0.11   0.14   0.03     0.14   0.15   0.21     0.13   0.22   0.26
     6   1     0.04   0.26   0.25    -0.01  -0.02  -0.23    -0.01   0.02  -0.23
     7   6    -0.05  -0.02  -0.05    -0.04   0.01   0.05     0.04  -0.01  -0.06
     8   1    -0.04   0.35   0.10    -0.01   0.22  -0.10     0.01  -0.18   0.13
     9   1     0.11   0.09   0.11     0.14  -0.27  -0.02    -0.12   0.32   0.06
    10   6     0.00   0.02   0.01     0.04   0.03  -0.04     0.00  -0.03  -0.02
    11   1    -0.00   0.01  -0.06    -0.04  -0.00   0.01     0.21   0.05   0.01
    12   1     0.00  -0.05   0.04    -0.03  -0.00   0.00    -0.21   0.04   0.04
    13   6    -0.00  -0.01  -0.01    -0.04   0.02  -0.03    -0.00  -0.03  -0.02
    14   1     0.00  -0.01   0.07    -0.07   0.01  -0.01     0.17   0.04   0.02
    15   1    -0.01   0.05  -0.04    -0.06   0.00  -0.01    -0.17   0.04   0.03
    16   6     0.00   0.01   0.01    -0.03   0.01  -0.01    -0.00  -0.01  -0.01
    17   1    -0.00   0.01  -0.07     0.02   0.03  -0.04    -0.12  -0.05   0.15
    18   1     0.00  -0.05   0.04     0.02   0.02  -0.04     0.12   0.10  -0.12
    19   6     0.00   0.01   0.00    -0.03  -0.00   0.00    -0.00  -0.03  -0.02
    20   1     0.02   0.01  -0.07     0.07   0.03  -0.03    -0.06  -0.04   0.23
    21   1    -0.02  -0.05   0.04     0.07   0.01  -0.04     0.07   0.18  -0.15
    22  15    -0.00   0.00  -0.00     0.04  -0.02   0.03     0.00   0.03   0.02
    23   1    -0.21  -0.12  -0.33     0.05  -0.02  -0.18     0.02  -0.04  -0.27
    24   1     0.00  -0.13  -0.08     0.50  -0.07   0.12     0.01   0.02   0.02
    25   1     0.21  -0.35   0.06     0.05   0.18  -0.07    -0.02  -0.25   0.09
    26   1     0.00  -0.03  -0.02    -0.02  -0.09   0.15    -0.00   0.10   0.06
    27   6    -0.00  -0.01  -0.01     0.03  -0.03   0.05     0.00   0.06   0.03
    28   1     0.01  -0.01   0.07     0.04  -0.03   0.04    -0.15  -0.01  -0.17
    29   1    -0.01   0.05  -0.04     0.03  -0.01   0.04     0.15  -0.15   0.08
                     28                     29                     30
                      A                      A                      A
 Frequencies --    912.1499               968.2453               985.3337
 Red. masses --      1.8748                 1.2713                 1.4871
 Frc consts  --      0.9191                 0.7022                 0.8507
 IR Inten    --      0.0484                 0.6158                33.0723
  Atom  AN      X      Y      Z        X      Y      Z        X      Y      Z
     1   6     0.01  -0.01   0.02     0.00   0.05   0.03    -0.03  -0.02   0.04
     2   1     0.06   0.01  -0.03    -0.22  -0.03  -0.06     0.06   0.01  -0.06
     3   1     0.06   0.02  -0.02     0.22  -0.07   0.01     0.06   0.04  -0.03
     4   6     0.01   0.02  -0.01    -0.05  -0.01   0.02    -0.09   0.07  -0.02
     5   1    -0.04  -0.06  -0.08     0.12   0.09   0.17     0.15  -0.15  -0.01
     6   1     0.00  -0.01   0.07    -0.03  -0.06  -0.21    -0.07  -0.30  -0.33
     7   6     0.01  -0.01  -0.02     0.05   0.01  -0.02    -0.09  -0.02  -0.07
     8   1     0.00  -0.05   0.04     0.02  -0.22   0.05    -0.07   0.44   0.10
     9   1    -0.04   0.10   0.02    -0.12   0.19  -0.01     0.15   0.09   0.12
    10   6    -0.06  -0.03   0.05     0.00  -0.07  -0.04     0.02   0.00  -0.00
    11   1    -0.11  -0.05   0.07     0.02  -0.06   0.20    -0.00  -0.01   0.02
    12   1    -0.11  -0.04   0.07    -0.01   0.15  -0.15    -0.00  -0.02   0.02
    13   6     0.04   0.02  -0.04    -0.00   0.06   0.03    -0.02   0.01  -0.03
    14   1     0.02   0.01  -0.01    -0.03   0.04  -0.23    -0.01   0.02  -0.03
    15   1     0.02   0.00  -0.01     0.03  -0.18   0.15    -0.01   0.02  -0.03
    16   6    -0.08   0.05  -0.09    -0.00  -0.02  -0.01    -0.00  -0.01   0.02
    17   1     0.07   0.10  -0.18     0.25   0.07  -0.07     0.01  -0.01   0.01
    18   1     0.07   0.10  -0.18    -0.25  -0.02   0.09     0.01  -0.01   0.01
    19   6    -0.13  -0.04   0.07    -0.00   0.04   0.02     0.00   0.01  -0.02
    20   1     0.23   0.07  -0.05     0.07   0.05  -0.24     0.02   0.01  -0.02
    21   1     0.23   0.00  -0.09    -0.07  -0.18   0.17     0.02   0.01  -0.03
    22  15    -0.01   0.01  -0.01     0.00  -0.00  -0.00     0.06  -0.01   0.02
    23   1    -0.00   0.02   0.09     0.08   0.02  -0.04     0.24   0.16   0.33
    24   1    -0.09   0.01  -0.02    -0.00  -0.09  -0.05    -0.23   0.02  -0.04
    25   1    -0.00  -0.09   0.03    -0.08  -0.02   0.04     0.24  -0.36   0.03
    26   1    -0.12  -0.35   0.61     0.00  -0.11  -0.06     0.01   0.00   0.00
    27   6     0.16  -0.02   0.03    -0.00  -0.03  -0.02    -0.01  -0.02   0.03
    28   1     0.21   0.00  -0.02     0.26   0.07  -0.06    -0.01  -0.02   0.03
    29   1     0.21   0.01  -0.01    -0.26  -0.01   0.09    -0.01  -0.01   0.03
                     31                     32                     33
                      A                      A                      A
 Frequencies --    988.4658              1003.5876              1010.3404
 Red. masses --      1.4286                 1.7929                 2.7805
 Frc consts  --      0.8224                 1.0639                 1.6723
 IR Inten    --     31.0447               100.5354                15.5184
  Atom  AN      X      Y      Z        X      Y      Z        X      Y      Z
     1   6    -0.00  -0.10  -0.06     0.02   0.04  -0.07    -0.00  -0.04   0.07
     2   1     0.43   0.05   0.13    -0.16  -0.02   0.13     0.20   0.02  -0.13
     3   1    -0.42   0.14  -0.02    -0.16  -0.10   0.08     0.20   0.10  -0.08
     4   6     0.04  -0.04  -0.02     0.05   0.06  -0.06     0.01  -0.04   0.03
     5   1    -0.11   0.02  -0.07    -0.16  -0.24  -0.33     0.01   0.14   0.13
     6   1     0.03   0.13   0.15     0.01  -0.06   0.24     0.02   0.12   0.01
     7   6    -0.04  -0.04  -0.02     0.05   0.02  -0.08     0.01  -0.01   0.05
     8   1    -0.03   0.20   0.04     0.01  -0.18   0.17     0.02  -0.07  -0.10
     9   1     0.11  -0.04   0.06    -0.16   0.41   0.04     0.01  -0.19  -0.06
    10   6     0.00  -0.04  -0.02     0.09   0.01  -0.02     0.19  -0.03   0.06
    11   1     0.11   0.01   0.07     0.14   0.03  -0.05     0.17  -0.04   0.04
    12   1    -0.11   0.07  -0.03     0.14   0.03  -0.05     0.17  -0.01   0.05
    13   6    -0.00   0.03   0.02    -0.07   0.03  -0.05    -0.16   0.07  -0.12
    14   1     0.04   0.04  -0.15    -0.05   0.03  -0.05    -0.11   0.09  -0.14
    15   1    -0.04  -0.11   0.11    -0.05   0.03  -0.05    -0.11   0.07  -0.15
    16   6    -0.00  -0.02  -0.01    -0.01  -0.02   0.04    -0.02  -0.06   0.11
    17   1     0.17   0.04  -0.03     0.02  -0.01   0.02     0.09  -0.02   0.04
    18   1    -0.17  -0.00   0.05     0.02  -0.01   0.02     0.10  -0.02   0.04
    19   6     0.00   0.03   0.02    -0.00   0.02  -0.04    -0.02   0.06  -0.11
    20   1     0.04   0.03  -0.15     0.06   0.04  -0.06     0.21   0.14  -0.18
    21   1    -0.04  -0.12   0.11     0.06   0.03  -0.07     0.22   0.09  -0.21
    22  15     0.00   0.06   0.03    -0.04  -0.04   0.07    -0.02   0.03  -0.05
    23   1    -0.13  -0.09  -0.17    -0.07   0.03   0.25    -0.04  -0.05  -0.18
    24   1    -0.00   0.18   0.11     0.36  -0.04   0.07    -0.34   0.04  -0.06
    25   1     0.14  -0.20   0.01    -0.07  -0.23   0.10    -0.04   0.18  -0.04
    26   1     0.00  -0.07  -0.04     0.00  -0.02   0.03    -0.01  -0.11   0.19
    27   6    -0.00  -0.01  -0.00    -0.01  -0.02   0.04    -0.03  -0.06   0.11
    28   1     0.17   0.06  -0.08     0.03  -0.01   0.01     0.10  -0.01   0.01
    29   1    -0.17  -0.04   0.09     0.03  -0.00   0.01     0.11  -0.00   0.02
                     34                     35                     36
                      A                      A                      A
 Frequencies --   1034.1505              1064.2990              1100.1329
 Red. masses --      3.1768                 2.5379                 1.2256
 Frc consts  --      2.0018                 1.6938                 0.8740
 IR Inten    --      0.1653                 0.7741                14.7128
  Atom  AN      X      Y      Z        X      Y      Z        X      Y      Z
     1   6     0.01   0.01  -0.02     0.00  -0.00   0.01    -0.00  -0.02  -0.01
     2   1    -0.03  -0.00   0.02     0.02   0.00  -0.01     0.06   0.01   0.03
     3   1    -0.03  -0.02   0.01     0.02   0.01  -0.01    -0.06   0.03  -0.01
     4   6     0.01  -0.00   0.00     0.01  -0.00  -0.00    -0.01  -0.02   0.01
     5   1    -0.03   0.00  -0.01    -0.02  -0.00  -0.01    -0.00   0.05   0.05
     6   1     0.01   0.03   0.04     0.01   0.02   0.03     0.00   0.03  -0.05
     7   6     0.01  -0.00   0.00     0.01   0.00   0.00     0.01  -0.00  -0.02
     8   1     0.01  -0.05  -0.00     0.01  -0.03   0.00    -0.00  -0.03   0.05
     9   1    -0.03   0.01  -0.01    -0.02   0.01  -0.01     0.00   0.06   0.02
    10   6    -0.18   0.01  -0.01     0.01   0.00   0.00     0.00  -0.06  -0.04
    11   1    -0.32  -0.05   0.06    -0.04  -0.02   0.02    -0.31  -0.17   0.35
    12   1    -0.33  -0.03   0.07    -0.04  -0.00   0.03     0.30   0.22  -0.32
    13   6     0.24   0.08  -0.14     0.02   0.07  -0.12     0.00   0.04   0.02
    14   1     0.31   0.10  -0.18     0.08   0.09  -0.17    -0.31  -0.08   0.05
    15   1     0.31   0.11  -0.18     0.08   0.10  -0.17     0.31   0.00  -0.09
    16   6    -0.09  -0.07   0.12     0.18   0.07  -0.12    -0.00   0.04   0.02
    17   1    -0.12  -0.09   0.17     0.35   0.13  -0.22    -0.17  -0.02  -0.04
    18   1    -0.13  -0.10   0.16     0.35   0.12  -0.22     0.17  -0.04  -0.00
    19   6     0.05   0.07  -0.12    -0.02  -0.07   0.12     0.00  -0.03  -0.02
    20   1     0.05   0.07  -0.13    -0.06  -0.09   0.16    -0.03  -0.03   0.13
    21   1     0.05   0.08  -0.13    -0.06  -0.09   0.15     0.03   0.09  -0.09
    22  15    -0.01   0.00  -0.00    -0.01   0.00  -0.00     0.00   0.03   0.02
    23   1    -0.02  -0.01  -0.02    -0.02  -0.01  -0.00    -0.02  -0.03  -0.09
    24   1     0.07  -0.00   0.01    -0.02   0.00  -0.00    -0.00   0.04   0.02
    25   1    -0.02   0.02   0.00    -0.02   0.01   0.00     0.01  -0.09   0.02
    26   1     0.05   0.07  -0.13    -0.02  -0.04   0.08     0.00   0.06   0.03
    27   6    -0.01  -0.09   0.15    -0.17  -0.07   0.11     0.00  -0.05  -0.03
    28   1    -0.05  -0.11   0.20    -0.33  -0.12   0.18    -0.11  -0.08   0.22
    29   1    -0.06  -0.12   0.20    -0.33  -0.10   0.20     0.11   0.15  -0.18
                     37                     38                     39
                      A                      A                      A
 Frequencies --   1125.0420              1223.1022              1246.0349
 Red. masses --      2.2001                 1.5579                 1.3082
 Frc consts  --      1.6407                 1.3731                 1.1967
 IR Inten    --     15.7519                 0.6740                 3.9268
  Atom  AN      X      Y      Z        X      Y      Z        X      Y      Z
     1   6    -0.00  -0.01   0.02     0.00   0.00   0.00    -0.00   0.00  -0.01
     2   1     0.05   0.00  -0.03    -0.01   0.00  -0.01    -0.01   0.00   0.01
     3   1     0.05   0.02  -0.02     0.01  -0.01   0.01    -0.01  -0.01   0.00
     4   6     0.01   0.00  -0.00     0.00   0.01  -0.00    -0.00  -0.00   0.01
     5   1    -0.01   0.00  -0.01     0.02  -0.01  -0.00    -0.01  -0.01   0.00
     6   1     0.00   0.01   0.03    -0.00  -0.01   0.02     0.00  -0.01  -0.05
     7   6     0.01   0.00  -0.00    -0.00  -0.00   0.01    -0.00  -0.01   0.01
     8   1     0.00  -0.03   0.00     0.00   0.02  -0.02     0.00   0.05  -0.02
     9   1    -0.01   0.00  -0.01    -0.02  -0.00  -0.00    -0.01   0.00   0.01
    10   6     0.09  -0.01   0.02    -0.00  -0.02  -0.01    -0.10  -0.03   0.05
    11   1    -0.09  -0.08   0.10     0.31   0.10  -0.14     0.40   0.16  -0.25
    12   1    -0.09  -0.05   0.12    -0.31  -0.07   0.16     0.41   0.14  -0.26
    13   6    -0.05   0.05  -0.09    -0.00   0.07   0.04    -0.05  -0.00   0.01
    14   1    -0.19  -0.00   0.03     0.04   0.08  -0.24     0.27   0.12  -0.21
    15   1    -0.19  -0.03   0.02    -0.04  -0.16   0.19     0.27   0.12  -0.20
    16   6    -0.13   0.07  -0.12    -0.00   0.12   0.07    -0.05   0.02  -0.03
    17   1    -0.30   0.01   0.02    -0.11   0.07  -0.27     0.05   0.05  -0.08
    18   1    -0.30  -0.02   0.00     0.11  -0.20   0.20     0.05   0.04  -0.08
    19   6     0.11  -0.04   0.06     0.00  -0.09  -0.05     0.04  -0.01   0.02
    20   1    -0.31  -0.17   0.15    -0.04  -0.08   0.30    -0.09  -0.05   0.02
    21   1    -0.31  -0.05   0.22     0.04   0.22  -0.22    -0.09   0.00   0.05
    22  15    -0.01   0.00  -0.01     0.00  -0.01  -0.01     0.01   0.00  -0.00
    23   1    -0.01  -0.00   0.01     0.00   0.01   0.02     0.01  -0.00  -0.04
    24   1    -0.06   0.00  -0.01    -0.00  -0.02  -0.01     0.03  -0.00   0.01
    25   1    -0.01  -0.00   0.01    -0.00   0.02  -0.01     0.01   0.04  -0.02
    26   1     0.09   0.23  -0.40     0.00   0.17   0.10     0.03   0.06  -0.11
    27   6     0.15  -0.05   0.09     0.00  -0.10  -0.06    -0.00  -0.03   0.06
    28   1     0.01  -0.10   0.14     0.25   0.01   0.12     0.24   0.06  -0.10
    29   1     0.01  -0.07   0.16    -0.25   0.11  -0.06     0.24   0.06  -0.10
                     40                     41                     42
                      A                      A                      A
 Frequencies --   1289.3941              1315.4271              1337.3182
 Red. masses --      1.2389                 1.3320                 1.1073
 Frc consts  --      1.2136                 1.3580                 1.1668
 IR Inten    --      0.2599                 4.2706                 2.6074
  Atom  AN      X      Y      Z        X      Y      Z        X      Y      Z
     1   6     0.00   0.00   0.00     0.01  -0.00   0.00     0.00   0.00   0.00
     2   1    -0.00   0.00  -0.01    -0.02  -0.01   0.00     0.00   0.00  -0.01
     3   1    -0.00  -0.01   0.01    -0.02   0.00   0.01    -0.00  -0.01   0.01
     4   6     0.00   0.00  -0.00     0.00  -0.00  -0.01     0.00   0.00   0.00
     5   1     0.01  -0.01  -0.00     0.01   0.02   0.01    -0.01  -0.01  -0.01
     6   1    -0.00  -0.01   0.02    -0.00   0.01   0.04     0.00  -0.01  -0.01
     7   6    -0.00  -0.00   0.01     0.00   0.01  -0.00    -0.00   0.00   0.00
     8   1     0.00   0.02  -0.02    -0.00  -0.04   0.01    -0.00  -0.01  -0.01
     9   1    -0.01  -0.00  -0.00     0.01  -0.02  -0.02     0.01  -0.02  -0.01
    10   6    -0.00  -0.04  -0.02     0.06   0.04  -0.06    -0.00  -0.02  -0.01
    11   1     0.37   0.10  -0.12    -0.31  -0.11   0.19     0.17   0.04  -0.04
    12   1    -0.36  -0.05   0.14    -0.31  -0.11   0.19    -0.17  -0.02   0.06
    13   6    -0.00   0.08   0.05    -0.00  -0.03   0.05     0.00   0.03   0.02
    14   1    -0.23  -0.00  -0.08     0.14   0.02  -0.08    -0.21  -0.04   0.06
    15   1     0.23  -0.07   0.03     0.13   0.06  -0.06     0.21   0.03  -0.06
    16   6     0.00  -0.04  -0.03    -0.08  -0.01   0.02    -0.00  -0.03  -0.02
    17   1    -0.24  -0.13   0.26     0.26   0.11  -0.20     0.46   0.14  -0.22
    18   1     0.24   0.16  -0.24     0.26   0.12  -0.20    -0.45  -0.12   0.23
    19   6    -0.00   0.06   0.03     0.04  -0.01   0.02     0.00  -0.04  -0.02
    20   1     0.01   0.05  -0.18    -0.07  -0.05  -0.03    -0.02  -0.04   0.10
    21   1    -0.01  -0.13   0.14    -0.07   0.04   0.03     0.02   0.07  -0.09
    22  15     0.00  -0.01  -0.00    -0.01  -0.00   0.00     0.00  -0.00  -0.00
    23   1     0.00   0.00   0.02    -0.00   0.00   0.04    -0.01  -0.00  -0.01
    24   1    -0.00  -0.02  -0.01    -0.04   0.01  -0.02    -0.00  -0.01  -0.01
    25   1    -0.00   0.02  -0.00    -0.00  -0.04   0.02     0.01  -0.01   0.00
    26   1    -0.00  -0.11  -0.06     0.04   0.08  -0.14     0.00   0.04   0.02
    27   6     0.00  -0.03  -0.02    -0.08  -0.02   0.03    -0.00   0.06   0.03
    28   1    -0.19  -0.10   0.21     0.34   0.13  -0.19    -0.34  -0.07   0.08
    29   1     0.19   0.13  -0.19     0.34   0.10  -0.21     0.34   0.04  -0.10
                     43                     44                     45
                      A                      A                      A
 Frequencies --   1339.9908              1348.6104              1350.8894
[...]
 28660,-0.00002703,-0.00008884,-0.00013528,-0.00014738,0.00008670,-0.00
 008559,-0.00000244,0.00001177,0.00003172,0.00000325,-0.00001006,-0.000
 01004,-0.00001946,-0.00000022,-0.00001135,-0.00000432,-0.00000670,-0.0
 0000144,-0.00000007,-0.00000122,0.00000532,-0.00000082,-0.00000163,-0.
 00000719,0.00077825,-0.00927909,0.00112551,0.06488718,-0.00000472,0.00
 053067,0.00034081,-0.00050511,0.00016705,-0.00017286,0.00004381,0.0002
 1764,-0.00004992,0.07193618,-0.29948798,0.00913688,0.00347020,-0.01115
 278,-0.00070397,-0.00034969,0.00022939,0.00025815,-0.00086663,0.000202
 03,-0.00182824,-0.00000561,0.00013694,0.00006129,-0.00001785,0.0002838
 4,0.00007284,-0.00011880,0.00058727,0.00040415,0.00008587,0.00034850,-
 0.00034893,-0.00016458,0.00008379,0.00009731,0.00012594,0.00000762,-0.
 00001406,-0.00005055,0.00002815,0.00004067,0.00007513,-0.00002993,-0.0
 0003647,0.00001851,-0.00001683,0.00002558,-0.00000173,0.00000089,-0.00
 000115,-0.00000503,0.00000112,-0.00000317,-0.00001459,0.00000672,-0.00
 000745,0.00000252,-0.00000219,0.00000239,0.00000220,-0.00000177,0.0000
 0018,0.00268999,-0.01204141,0.00006067,-0.07665375,0.32028089,0.000523
 49,0.00121197,0.00085046,-0.00067824,0.00007115,-0.00002389,0.00032478
 ,0.00016909,-0.00008789,-0.00039046,0.00354643,-0.04187155,-0.00793138
 ,0.02457348,0.00102125,-0.00032556,0.00373642,-0.00107065,-0.00242635,
 -0.00158908,-0.00552723,-0.00006729,0.00043512,-0.00000912,-0.00018788
 ,0.00006489,0.00002920,0.00022498,0.00091842,0.00132136,0.00002244,0.0
 0043208,-0.00078494,-0.00036374,0.00009778,0.00035592,-0.00000162,-0.0
 0002390,-0.00009052,-0.00015229,0.00007902,0.00011695,0.00015583,-0.00
 001959,0.00004222,0.00003192,-0.00002508,0.00001094,-0.00001350,0.0000
 1075,0.00000200,0.00000360,0.00000161,0.00000293,-0.00001751,0.0000079
 5,-0.00001084,0.00000539,0.00000271,-0.00000123,0.00000498,-0.00000123
 ,0.00000505,0.00769274,-0.02447622,-0.00005211,0.00299472,-0.00750923,
 0.04520297,-0.08749459,-0.05351552,0.09257962,0.00468968,0.00429902,-0
 .00946713,0.00472573,0.00608512,-0.00849638,0.00183393,0.00048997,-0.0
 0018405,-0.00035064,-0.00026478,-0.00088930,0.00018004,0.00044315,0.00
 010693,0.00184626,-0.00009275,-0.00051794,0.00017863,-0.00031638,-0.00
 033007,-0.00034208,0.00092172,-0.00021591,-0.00614965,0.00145748,-0.00
 251849,0.00017416,0.00000633,-0.00032017,0.00017200,0.00027213,-0.0001
 6079,0.00080795,-0.00130809,0.00227661,-0.00001136,0.00010698,0.000003
 11,-0.00001120,-0.00005662,-0.00009105,0.00015206,-0.00022188,0.000385
 19,-0.00000370,0.00002191,-0.00000283,-0.00000371,-0.00000856,-0.00002
 036,-0.00017416,0.00004746,-0.00008258,0.00001169,-0.00000702,0.,0.000
 01169,0.00000353,0.00000607,-0.01287392,-0.01341405,0.02318076,-0.0000
 0004,0.00005204,0.00002310,0.09352267,-0.05021420,-0.10068950,0.099561
 40,-0.01364718,-0.01190420,0.02335907,0.00757287,0.00684106,-0.0117088
 8,-0.00006151,-0.00029899,-0.00008781,-0.00024445,0.00013761,-0.000192
 38,0.00008111,0.00002324,-0.00015607,-0.00032190,-0.00002140,-0.000277
 42,-0.00010156,0.00000791,0.00007023,0.00030794,-0.00005585,0.00012602
 ,0.00088467,0.00004705,0.00020578,0.00016030,0.00027830,-0.00016955,-0
 .00007032,-0.00008383,0.00025507,0.00013160,0.00056664,-0.00018849,-0.
 00009164,-0.00002295,0.00000511,0.00002771,-0.00001056,0.00000009,-0.0
 0000718,0.00002512,-0.00003648,0.00000401,-0.00000357,-0.00000121,-0.0
 0000354,-0.00000177,0.00000040,0.00001908,-0.00000885,0.00000318,-0.00
 000102,0.00000026,0.00000129,-0.00000160,-0.00000026,-0.00000193,0.000
 70265,-0.00072432,-0.00247403,-0.00010441,-0.00003149,0.00006607,0.054
 75692,0.10595036,0.08687242,0.09956665,-0.21539385,-0.00090696,-0.0009
 2959,0.00017821,0.01137946,0.01254157,-0.01859876,0.00039155,-0.000123
 03,0.00018563,-0.00020904,0.00002151,-0.00000213,0.00006992,0.00006071
 ,0.00005610,0.00024451,-0.00024473,-0.00008425,-0.00003625,-0.00014592
 ,0.00007325,0.00010400,-0.00008348,0.00017384,-0.00150098,0.00020118,-
 0.00017588,-0.00001475,0.00004543,-0.00013317,-0.00014790,0.00003911,0
 .00022968,-0.00023261,-0.00018218,0.00077486,0.00002130,0.00000681,-0.
 00001351,0.00008974,-0.00000191,-0.00002538,0.00001191,-0.00003548,0.0
 0006571,0.00000176,0.00000137,-0.00000125,-0.00000260,-0.00000226,-0.0
 0000302,-0.00003238,0.00000295,-0.00001219,0.00000240,-0.00000219,0.00
 000010,0.00000206,0.00000158,0.00000058,-0.00117757,-0.00244359,0.0020
 5731,-0.00008021,-0.00002236,-0.00000816,-0.09473316,-0.10836917,0.230
 78394,0.00012431,-0.00074303,0.00000891,0.00010744,-0.00010299,-0.0001
 5702,-0.00034381,0.00029984,-0.00016039,-0.00059409,0.00233526,-0.0005
 6461,-0.00008815,-0.00018787,-0.00030714,0.00014825,0.00018097,0.00008
 438,-0.06295262,-0.03339987,-0.06156569,-0.00625696,-0.01559646,-0.026
 61727,0.00313300,0.00769324,0.01140432,-0.00004540,-0.00064864,-0.0001
 1721,-0.00010142,-0.00002256,0.00015513,0.00017304,-0.00004857,-0.0000
 8225,0.00006490,-0.00023475,0.00016154,-0.00014447,0.00002544,-0.00012
 008,-0.00002739,0.00015967,0.00000831,-0.00000245,-0.00003282,0.000006
 02,-0.00001933,0.00000975,-0.00000567,0.00000330,0.00001370,0.00000368
 ,-0.00000427,0.00000439,0.00000486,-0.00000083,0.00000700,-0.00000213,
 -0.00000007,-0.00000396,0.00000378,0.00076464,0.00368427,0.00853980,0.
 00060557,0.00030507,0.00057813,-0.00000242,0.00012281,0.00005100,0.065
 45035,-0.00045017,0.00145907,0.00068988,-0.00030529,0.00004107,0.00027
 172,0.00081927,-0.00002976,0.00016856,0.00252149,-0.00558603,0.0017427
 8,0.00017247,0.00015085,0.00013923,0.00006312,0.00024275,0.00037570,-0
 .03605639,-0.10066254,-0.11093927,0.00048770,0.00102330,0.00335996,0.0
 0518480,0.00828129,0.01328919,-0.00012665,0.00170196,0.00026619,0.0003
 9749,0.00037241,-0.00006684,-0.00004979,-0.00045374,0.00090345,-0.0000
 6145,-0.00007865,0.00002693,-0.00017067,-0.00000438,-0.00003866,0.0001
 5683,0.00014514,0.00001037,-0.00003666,0.00000424,-0.00003731,-0.00000
 058,0.00000174,0.00000118,0.00001255,0.00000592,0.00000784,0.00002245,
 -0.00000618,0.00001536,-0.00000540,0.00000285,-0.00000390,-0.00000591,
 0.00000074,0.00000105,-0.00806298,-0.01364303,-0.02355294,-0.00065544,
 -0.00036774,-0.00184827,-0.00004338,0.00000343,0.00004512,0.03614145,0
 .10736741,0.00025964,-0.00017687,-0.00005900,0.00012426,0.00005293,0.0
 0008986,0.00010778,-0.00007170,0.00016481,-0.00045590,0.00149868,0.000
 25341,-0.00007736,0.00014963,0.00016139,-0.00002918,0.00000107,-0.0001
 1498,-0.06323948,-0.10535506,-0.24017085,0.00014990,-0.00013416,-0.001
 74706,-0.00706461,-0.01195352,-0.01845796,0.00021406,-0.00024067,0.000
 19704,-0.00003944,-0.00006898,0.00006685,-0.00007219,0.00011218,0.0000
 3480,-0.00010923,0.00003797,-0.00000308,0.00001425,-0.00005299,0.00001
 275,-0.00003160,-0.00002853,-0.00000125,-0.00000002,0.00001346,-0.0000
 1024,0.00000616,-0.00000353,0.00000225,-0.00000526,-0.00000405,-0.0000
 0299,0.00000388,0.00000005,0.00000216,0.00000059,-0.00000250,0.0000003
 8,0.00000052,0.00000068,-0.00000417,0.00153504,0.00096737,0.00151081,0
 .00002414,0.00021008,0.00057530,-0.00003361,-0.00004353,-0.00004417,0.
 06869072,0.11511060,0.25755168,-0.00003160,-0.00005289,0.00009154,0.00
 001215,-0.00000255,-0.00000551,0.00001219,0.00000603,-0.00000056,-0.00
 002545,-0.00003436,0.00005583,0.00000063,0.00000805,0.00000953,-0.0000
 0825,0.00000339,-0.00002574,-0.00002541,-0.00003113,0.00005768,-0.0000
 0819,0.00002064,-0.00001573,0.00000063,-0.00001231,-0.00000223,-0.0000
 6386,-0.00013749,0.00023865,0.00000840,0.00001223,-0.00000370,0.000008
 48,-0.00000291,-0.00001246,-0.00050074,0.00014144,-0.00024685,-0.00001
 401,-0.00006250,0.00001628,-0.00001404,0.00001735,0.00006214,-0.009083
 33,0.00034585,-0.00060559,0.00041819,-0.00045933,-0.00004729,0.0004164
 8,0.00027162,0.00037332,-0.31235659,-0.00014253,0.00006663,-0.00915187
 ,0.00009889,-0.00038102,-0.00913368,0.00027445,-0.00028041,0.00006915,
 0.00014244,-0.00024684,0.00000407,-0.00000641,-0.00001324,-0.00003030,
 0.00000425,-0.00000724,0.00000405,0.00001459,-0.00000106,0.33800107,-0
 .00003353,-0.00005601,0.00008501,0.00000880,-0.00000126,-0.00000003,0.
 00000759,0.00000174,0.00000018,-0.00000805,-0.00002155,0.00002253,0.00
 000090,0.00000510,0.00000528,-0.00000383,0.00000427,-0.00000916,-0.000
 00954,-0.00001481,0.00002463,-0.00000478,0.00000721,-0.00000196,0.0000
 0376,-0.00000768,-0.00000179,-0.00011995,-0.00017625,0.00028978,0.0000
 1652,-0.00000087,0.00001991,0.00001613,-0.00000860,-0.00000501,-0.0009
 3400,0.00050773,0.00008311,0.00002221,0.00000279,-0.00011065,-0.000007
 08,0.00000232,0.00004000,-0.01656828,-0.00110132,-0.00074308,-0.000120
 05,0.00023678,-0.00071828,0.00054081,0.00047261,-0.00035854,0.00083971
 ,-0.04672056,-0.00002658,0.03157137,0.00097012,0.00020689,-0.01570492,
 -0.00055322,0.00054379,-0.00005634,0.00009263,-0.00012707,0.00000177,-
 0.00000362,-0.00000473,-0.00003393,0.00000394,-0.00000526,-0.00000103,
 0.00000575,0.00000099,0.00078002,0.04749760,0.00005819,0.00008521,-0.0
 0015450,-0.00001382,0.00000193,0.00000167,-0.00001461,-0.00000175,-0.0
 0000133,0.00001567,0.00002847,-0.00004203,-0.00000487,-0.00000914,-0.0
 0000967,0.00000775,-0.00000028,0.00001366,0.00001478,0.00001867,-0.000
 04890,0.00000715,-0.00001091,0.00001064,-0.00000323,0.00001272,0.00000
 311,0.00020845,0.00028996,-0.00051227,-0.00002817,-0.00000949,-0.00001
 726,-0.00002851,0.00002437,-0.00000958,0.00162042,0.00008455,0.0004119
 3,-0.00000478,0.00003964,0.00004346,-0.00002148,-0.00011042,0.00004393
 ,0.02876381,-0.00073036,-0.00023164,-0.00055570,-0.00022235,0.00109875
 ,-0.00017425,-0.00085566,0.00086160,-0.00163563,-0.00002752,-0.0466906
 2,-0.00016913,-0.00032911,-0.00098318,-0.02739601,0.00106998,0.0005214
 8,0.00009786,-0.00012719,0.00023984,0.00000020,0.00000642,0.00000794,0
 .00005889,-0.00000541,0.00000996,-0.00000140,-0.00001013,-0.00000148,-
 0.00115610,-0.00228622,0.05014818,-0.00065999,-0.00139831,0.00242209,0
 .00017634,0.00000981,-0.00000316,0.00017763,-0.00000240,-0.00001021,0.
 00001090,-0.00025991,0.00003904,0.00024821,0.00011624,0.00015716,0.000
 11541,0.00003967,0.00039181,0.00001110,0.00009422,0.00025079,0.0001133
 3,-0.00035935,0.00015971,0.00024694,-0.00019544,-0.00002250,-0.0206308
 6,-0.01666478,0.02889848,0.00176818,-0.00082825,0.00038072,0.00177498,
 0.00009012,0.00090658,-0.08068850,-0.01196717,0.02076118,0.00360874,0.
 00456545,-0.00847273,0.00358384,0.00501165,-0.00816216,-0.17987842,0.0
 0239355,-0.00429288,-0.01533865,-0.00016525,0.00013060,-0.01528181,-0.
 00004218,0.00020661,-0.01625293,-0.00328343,0.00568425,0.00122953,0.00
 085564,-0.00129443,0.00123936,0.00069134,-0.00139370,-0.00638161,0.001
 10592,-0.00192173,-0.00001426,-0.00005021,-0.00001191,-0.00091340,0.00
 009657,-0.00016366,-0.00001324,0.00003665,0.00003737,0.00091162,-0.000
 29867,0.00051788,0.47216013,0.00035693,0.00066967,-0.00068442,-0.00009
 834,0.00000846,-0.00001859,-0.00002565,-0.00001154,0.00001188,0.000010
 82,0.00038655,-0.00033879,0.00012953,-0.00004319,-0.00000150,0.0001466
 8,-0.00011954,0.00026010,-0.00008230,-0.00009490,0.00036026,-0.0001271
 6,0.00019431,-0.00024418,-0.00021328,-0.00000363,-0.00000135,-0.003232
 76,-0.00061619,0.00026854,0.00146330,0.00102728,-0.00120050,0.00013891
 ,-0.00001136,0.00050763,-0.01353283,-0.10048210,0.03883845,-0.01069449
 ,-0.01685112,0.02829081,0.00534896,0.00753979,-0.01264933,0.00168498,-
 0.07867629,-0.00088320,0.03255550,0.00057835,-0.00025506,-0.01706570,-
 0.00055201,0.00081064,-0.01768479,-0.00098760,0.00076795,-0.00117583,0
 .00023922,0.00007756,0.00090234,0.00047717,-0.00082553,0.00116177,-0.0
 0137472,0.00009322,0.00000048,0.00003291,0.00004992,0.00032088,-0.0000
 3166,0.00005799,0.00004239,0.00003035,-0.00001693,-0.00128632,-0.00141
 180,0.00286346,-0.02027877,0.56312908,-0.00061978,-0.00069056,0.001469
 51,0.00008634,0.00000012,-0.00000805,0.00012903,-0.00000675,0.00001187
 ,0.00009063,0.00008551,-0.00011061,0.00017225,0.00002191,-0.00000242,0
 .00006369,-0.00006704,0.00018344,0.00003795,-0.00006018,0.00036956,-0.
 00009370,0.00008175,-0.00012531,-0.00002433,-0.00002501,-0.00004208,0.
 00557540,0.00024787,-0.00088140,-0.00100490,-0.00009904,0.00038873,-0.
 00178121,-0.00060284,0.00143208,0.02348308,0.03883783,-0.14561770,0.00
 003195,0.00152578,-0.00156949,0.00924808,0.01413923,-0.02594009,-0.003
 07715,-0.00088438,-0.07766304,0.00081802,0.00017539,-0.00086215,-0.027
 72811,0.00037239,0.00024626,0.03068138,0.00078115,-0.00185848,-0.00035
 456,-0.00068311,0.00090539,0.00083688,-0.00006153,0.00066365,-0.002024
 00,0.00010010,-0.00149127,-0.00005250,-0.00001763,0.00001309,-0.000559
 39,0.00005959,-0.00009855,-0.00002883,0.00004970,0.00001485,0.00223473
 ,0.00286575,-0.00473575,0.03515623,0.03898376,0.51799964,0.00001908,0.
 00005228,-0.00008091,-0.00001422,0.00000228,0.00000905,-0.00000927,-0.
 00000626,0.00000163,0.00000949,0.00003356,-0.00003347,-0.00001381,-0.0
 0001463,-0.00001035,-0.00000148,0.00000232,-0.00002321,-0.00004737,-0.
 00005026,0.00005318,-0.00004008,0.00007913,-0.00004501,-0.00005882,0.0
 0000454,-0.00000270,0.00105039,-0.00104609,-0.00010440,-0.00000302,0.0
 0022827,0.00011005,0.00000826,-0.00006575,-0.00004160,0.00231369,-0.01
 196075,0.00075230,-0.00053613,-0.00131208,0.00223247,0.00010992,0.0005
 7853,-0.00043407,-0.01461350,0.03265553,0.00075717,-0.00660270,-0.0006
 0126,0.00015375,0.00140117,-0.00029448,-0.00043919,0.00162718,0.001141
 50,-0.00093268,0.00002100,-0.00102134,0.00054758,-0.00003047,-0.000120
 80,0.00005685,0.00040802,-0.00003090,-0.00003291,0.00001022,0.00000429
 ,0.00000548,0.00002728,-0.00000087,0.00000171,0.00000785,0.00000686,-0
 .00000837,0.00029015,-0.00031414,-0.00028959,-0.07573575,0.08069828,-0
 .00113455,0.08684300,-0.00003131,-0.00000914,0.00005562,-0.00001886,-0
 .00000355,0.00001759,0.00000326,-0.00001271,0.00000365,0.00001687,0.00
 002354,0.00000425,-0.00001601,0.00000436,-0.00000520,-0.00000658,-0.00
 002426,-0.00005116,0.00013185,0.00005997,-0.00014295,-0.00002472,0.000
 06575,-0.00007392,-0.00006692,0.00009288,0.00000973,0.00058845,0.00050
 628,-0.00061903,-0.00102992,0.00007294,0.00030986,0.00002979,-0.000128
 88,0.00001914,0.00429612,-0.01536070,0.00125531,-0.00108851,0.00016054
 ,0.00264492,0.00001610,0.00083737,0.00022377,0.00046061,0.00030359,0.0
 0002621,-0.00046655,0.00147324,0.00050638,0.00040261,0.00062540,0.0002
 7627,-0.00050061,0.00078745,-0.00004362,0.00027967,0.00026977,-0.00042
 918,0.00002954,-0.00008880,0.00001740,0.00006830,0.00010843,0.00010108
 ,-0.00001895,-0.00000160,0.00003223,-0.00002841,0.00000543,-0.00001044
 ,0.00001989,0.00000603,-0.00000928,-0.00000997,0.00027548,-0.00007691,
 0.08023414,-0.26842383,0.00072550,-0.08813245,0.29272333,-0.00000166,-
 0.00007213,0.00001008,0.00002294,0.00000379,0.00000780,-0.00000342,-0.
 00000353,-0.00000195,-0.00001694,-0.00006223,0.00000831,0.00000044,-0.
 00001579,0.00000391,0.00000504,0.00005015,0.00002436,-0.00001733,0.000
 05072,-0.00009700,0.00006709,-0.00012889,0.00010490,0.00010293,-0.0000
 2623,0.00000915,-0.00119807,-0.00001613,0.00076385,0.00053227,-0.00035
 482,0.00023184,0.00017292,-0.00009266,-0.00008253,-0.00807600,0.028153
 26,-0.00285855,0.00206229,0.00313804,-0.00408751,-0.00066718,-0.000354
 34,0.00120126,-0.00014657,-0.00056203,-0.00026366,0.00037912,0.0004380
 5,0.00067362,0.00001385,0.00062763,0.00011411,0.00025574,-0.00094840,0
 .00029244,0.00012420,0.00027799,0.00016230,0.00001651,-0.00011753,-0.0
 0001683,-0.00056970,0.00011961,0.00011605,0.00003733,-0.00000086,-0.00
 003692,-0.00001427,0.00000587,-0.00000060,-0.00000629,-0.00001739,0.00
 000294,-0.00010879,0.00012171,-0.00013140,-0.00076924,-0.00055509,-0.0
 4934166,-0.00157207,-0.00439607,0.05264307,0.00001916,0.00004402,-0.00
 008593,-0.00000914,0.00000176,0.00000619,-0.00001434,-0.00000894,0.000
 00257,-0.00004726,-0.00002147,0.00007066,-0.00005890,0.00000005,-0.000
 00512,-0.00004036,-0.00000010,-0.00009109,0.00000923,0.00001221,-0.000
 04564,-0.00000135,0.00001877,-0.00001359,-0.00001372,0.00001626,0.0000
 0751,0.00105977,0.00062174,0.00085170,0.00000877,0.00007336,0.00003901
 ,-0.00002717,-0.00021979,-0.00014726,0.00228764,0.00535558,0.01070659,
 0.00010917,0.00008390,-0.00071973,-0.00053657,-0.00127365,0.00225302,-
 0.01456357,-0.01707058,-0.02785397,0.00140148,0.00052726,0.00003612,-0
 .00660265,0.00016018,0.00059372,0.00163261,0.00023849,-0.00146455,-0.0
 0003161,0.00000913,0.00013049,0.00000368,0.00003409,0.00115771,0.00040
 673,0.00004306,0.00001094,0.00000825,0.00000356,-0.00001059,0.00002739
 ,-0.00000114,0.00000157,0.00001024,-0.00000695,-0.00000101,0.00029006,
 0.00040856,0.00012622,-0.07558677,-0.03946353,-0.07016261,0.00355992,0
 .00486254,0.00937486,0.08669930,0.00001715,-0.00000174,-0.00007687,0.0
 0000136,-0.00000460,-0.00000815,-0.00001034,0.00001423,-0.00000649,-0.
 00005208,-0.00009886,0.00014323,-0.00005553,0.00002305,0.00001459,-0.0
 0004600,0.00000807,-0.00009481,0.00000616,-0.00001264,-0.00004159,-0.0
 0000086,0.00001105,0.00002944,0.00000781,-0.00000493,-0.00001014,0.000
 74283,0.00042428,0.00003127,-0.00016851,-0.00012641,-0.00008841,0.0000
 5299,0.00017682,-0.00041465,0.00480707,0.00677227,0.01531144,0.0005663
 0,0.00105348,-0.00048065,-0.00123922,-0.00050736,0.00352381,-0.0001125
 8,-0.00037212,-0.00020047,-0.00021291,0.00063666,0.00062127,-0.0001015
 2,0.00128547,0.00054822,0.00003511,-0.00001242,-0.00049029,-0.00002532
 ,-0.00007855,-0.00012656,-0.00025890,0.00012620,0.00036859,0.00045779,
 0.00021052,0.00006215,-0.00000390,-0.00000808,-0.00000974,0.00002674,-
 0.00000114,0.00000962,-0.00002259,-0.00001425,0.00000660,0.00009946,-0
 .00000854,0.00028746,-0.03954683,-0.10462167,-0.09585528,-0.01051532,-
 0.01434831,-0.02526270,0.04555162,0.10947951,0.00002623,0.00005156,0.0
 0000372,-0.00000470,-0.00000102,-0.00000998,0.00002788,0.00000718,-0.0
 0000996,-0.00012248,-0.00004988,0.00005917,0.00011037,0.00004985,0.000
 07903,0.00005580,-0.00004151,0.00016382,-0.00002280,0.00002537,0.00004
 552,0.00000791,-0.00007124,-0.00001270,0.00001371,0.00000040,0.0000134
 1,-0.00111391,-0.00057532,0.00084160,0.00005947,0.00001455,-0.00008485
 ,0.00115138,0.00025843,0.00014538,-0.00773840,-0.01160489,-0.02497834,
 -0.00034844,0.00009803,0.00098405,0.00197435,0.00303326,-0.00341949,-0
 .00048236,0.00039495,0.00037325,-0.00034270,0.00027051,0.00010408,0.00
 058890,0.00061640,0.00086274,0.00055348,0.00041911,0.00109549,-0.00001
 497,0.00001481,-0.00002575,-0.00017344,-0.00034291,0.00030394,-0.00034
 440,0.00004131,0.00001274,-0.00002139,-0.00000113,0.00001749,0.0000171
 7,-0.00000679,0.00000571,0.00003540,0.00003990,-0.00002406,-0.00004596
 ,0.00008882,0.00015346,-0.06958222,-0.09456770,-0.21335003,0.00050387,
 -0.00037114,0.00054861,0.07523222,0.10220911,0.23610194\\-0.00000014,0
 .00000073,0.00000002,0.00000018,0.00000084,0.00000032,-0.00000033,0.00
 000108,-0.00000010,0.00000019,-0.00000041,0.00000010,0.00000009,-0.000
 00051,-0.00000001,0.00000017,-0.00000078,0.00000001,-0.00000067,-0.000
 00002,-0.00000060,-0.00000068,-0.00000038,-0.00000068,-0.00000077,-0.0
 0000011,-0.00000071,0.00000002,0.00000033,0.00000009,0.00000034,0.0000
 0046,0.00000039,-0.00000018,0.00000070,-0.00000003,0.00000003,-0.00000
 012,-0.00000001,-0.00000029,-0.00000025,-0.00000030,0.00000024,-0.0000
 0049,0.00000012,0.00000022,-0.00000040,0.00000010,-0.00000013,-0.00000
 052,-0.00000021,0.00000038,-0.00000076,0.00000020,0.00000033,-0.000000
 22,0.00000025,0.00000064,-0.00000011,0.00000056,0.00000013,0.00000013,
 0.00000014,-0.00000014,0.00000016,-0.00000011,0.00000051,-0.00000033,0
 .00000039,-0.00000023,0.00000063,-0.00000009,-0.00000087,0.00000032,-0
 .00000072,0.00000033,-0.00000055,0.00000020,0.00000014,0.00000004,0.00
 000018,0.00000049,0.00000017,0.00000047,-0.00000002,0.00000041,0.00000
 005\\\@


 IF YOU GIVE A BOY AND A PIG EVERYTHING THEY WANT,
 YOU'LL GET A BAD BOY AND A GOOD PIG.
 Job cpu time:       0 days  3 hours 46 minutes  7.5 seconds.
 File lengths (MBytes):  RWF=    279 Int=      0 D2E=      0 Chk=      9 Scr=      1
 Normal termination of Gaussian 09 at Sat Nov 28 12:07:25 2020.
