 Entering Gaussian System, Link 0=g09
 Initial command:
 /apps/gaussian/g09_e01/g09/l1.exe "/rds/general/ephemeral/user/fdp18/ephemeral/gaussian/Gau-2107286.inp" -scrdir="/rds/general/ephemeral/user/fdp18/ephemeral/gaussian/"
 Entering Link 1 = /apps/gaussian/g09_e01/g09/l1.exe PID=   2107287.
  
 Copyright (c) 1988,1990,1992,1993,1995,1998,2003,2009,2015,
            Gaussian, Inc.  All Rights Reserved.
  
 This is part of the Gaussian(R) 09 program.  It is based on
 the Gaussian(R) 03 system (copyright 2003, Gaussian, Inc.),
 the Gaussian(R) 98 system (copyright 1998, Gaussian, Inc.),
 the Gaussian(R) 94 system (copyright 1995, Gaussian, Inc.),
 the Gaussian 92(TM) system (copyright 1992, Gaussian, Inc.),
 the Gaussian 90(TM) system (copyright 1990, Gaussian, Inc.),
 the Gaussian 88(TM) system (copyright 1988, Gaussian, Inc.),
 the Gaussian 86(TM) system (copyright 1986, Carnegie Mellon
 University), and the Gaussian 82(TM) system (copyright 1983,
 Carnegie Mellon University). Gaussian is a federally registered
 trademark of Gaussian, Inc.
  
 This software contains proprietary and confidential information,
 including trade secrets, belonging to Gaussian, Inc.
  
 This software is provided under written license and may be
 used, copied, transmitted, or stored only in accord with that
 written license.
  
 The following legend is applicable only to US Government
 contracts under FAR:
  
                    RESTRICTED RIGHTS LEGEND
  
 Use, reproduction and disclosure by the US Government is
 subject to restrictions as set forth in subparagraphs (a)
 and (c) of the Commercial Computer Software - Restricted
 Rights clause in FAR 52.227-19.
  
 Gaussian, Inc.
 340 Quinnipiac St., Bldg. 40, Wallingford CT 06492
  
  
 ---------------------------------------------------------------
 Warning -- This program may not be used in any manner that
 competes with the business of Gaussian, Inc. or will provide
 assistance to any competitor of Gaussian, Inc.  The licensee
 of this program is prohibited from giving any competitor of
 Gaussian, Inc. access to this program.  By using this program,
 the user acknowledges that Gaussian, Inc. is engaged in the
 business of creating and licensing software in the field of
 computational chemistry and represents and warrants to the
 licensee that it is not a competitor of Gaussian, Inc. and that
 it will not use this program in any manner prohibited above.
 ---------------------------------------------------------------
  

 Cite this work as:
 Gaussian 09, Revision E.01,
 M. J. Frisch, G. W. Trucks, H. B. Schlegel, G. E. Scuseria, 
 M. A. Robb, J. R. Cheeseman, G. Scalmani, V. Barone, B. Mennucci, 
 G. A. Petersson, H. Nakatsuji, M. Caricato, X. Li, H. P. Hratchian, 
 A. F. Izmaylov, J. Bloino, G. Zheng, J. L. Sonnenberg, M. Hada, 
 M. Ehara, K. Toyota, R. Fukuda, J. Hasegawa, M. Ishida, T. Nakajima, 
 Y. Honda, O. Kitao, H. Nakai, T. Vreven, J. A. Montgomery, Jr., 
 J. E. Peralta, F. Ogliaro, M. Bearpark, J. J. Heyd, E. Brothers, 
 K. N. Kudin, V. N. Staroverov, T. Keith, R. Kobayashi, J. Normand, 
 K. Raghavachari, A. Rendell, J. C. Burant, S. S. Iyengar, J. Tomasi, 
 M. Cossi, N. Rega, J. M. Millam, M. Klene, J. E. Knox, J. B. Cross, 
 V. Bakken, C. Adamo, J. Jaramillo, R. Gomperts, R. E. Stratmann, 
 O. Yazyev, A. J. Austin, R. Cammi, C. Pomelli, J. W. Ochterski, 
 R. L. Martin, K. Morokuma, V. G. Zakrzewski, G. A. Voth, 
 P. Salvador, J. J. Dannenberg, S. Dapprich, A. D. Daniels, 
 O. Farkas, J. B. Foresman, J. V. Ortiz, J. Cioslowski, 
 and D. J. Fox, Gaussian, Inc., Wallingford CT, 2013.
 
 ******************************************
 Gaussian 09:  ES64L-G09RevE.01 30-Nov-2015
                23-Mar-2021 
 ******************************************
 %nprocshared=48
 Will use up to   48 processors via shared memory.
 %mem=200GB
 %chk=P2222O2O2.chk
 ----------------------------------------------------------------------
 # RMP2=(semidirect,full)/cc-pVTZ int=ultrafine symmetry=none scf=conve
 r=11 Density=current pop=(minimal,CHELPG,Dipole)
 ----------------------------------------------------------------------
 1/30=1,38=1/1;
 2/12=2,15=3,17=6,18=5,40=1/2;
 3/5=16,6=1,11=1,16=1,25=1,30=1,71=1,75=-5,116=1/1,2,3;
 4//1;
 5/5=2,6=11,38=5/2;
 8/6=4,10=90/1;
 9/15=1,16=-2/6;
 10/5=1,13=10,31=1/2;
 6/7=2,8=2,9=2,10=2,15=24,20=3,22=-1/1,2;
 99/5=1,9=1/99;
 -------------------
 Title Card Required
 -------------------
 Symbolic Z-matrix:
 Charge =  1 Multiplicity = 1
 C                    -5.05518   0.14555  -0.17835 
 H                    -5.27962   1.2117   -0.27146 
 H                    -5.28013  -0.30519  -1.14886 
 C                    -2.76123   0.81919   1.61191 
 H                    -3.25907   0.27525   2.41957 
 H                    -1.68864   0.64363   1.73339 
 C                    -2.76355  -1.74327   0.1386 
 H                    -1.69035  -1.76141   0.34819 
 H                    -3.25937  -2.16616   1.01687 
 C                    -2.45258   0.82233  -1.35845 
 H                    -2.8062    1.85629  -1.3922 
 H                    -2.80904   0.33386  -2.26926 
 C                    -0.92436   0.8011   -1.32567 
 H                    -0.54811  -0.23323  -1.31364 
 H                    -0.54569   1.30239  -0.42184 
 C                    -5.88038  -0.50134   0.94047 
 H                    -5.68646  -0.03878   1.91002 
 H                    -6.94227  -0.37673   0.72519 
 H                    -5.68657  -1.57242   1.02319 
 C                    -3.09526  -2.54407  -1.12661 
 H                    -2.77648  -3.57865  -0.99452 
 H                    -4.1673   -2.55501  -1.33224 
 H                    -2.57884  -2.1506   -2.00406 
 C                    -3.08798   2.31661   1.66611 
 H                    -4.15931   2.50325   1.57093 
 H                    -2.76884   2.7225    2.62676 
 H                    -2.56891   2.87476   0.8848 
 C                     0.92461   1.53812  -2.60096 
 H                     1.34921   0.52746  -2.63822 
 H                     1.35318   2.06465  -1.73943 
 C                     1.252     2.28543  -3.88031 
 H                     0.81977   3.29579  -3.84425 
 H                     0.81469   1.76106  -4.74213 
 C                     3.12994   3.01205  -5.13012 
 H                     2.74714   4.04245  -5.13002 
 H                     2.74134   2.51139  -6.02822 
 C                     4.64438   2.99734  -5.11486 
 H                     5.01998   1.97199  -5.1214 
 H                     5.03353   3.51306  -5.99613 
 H                     5.02579   3.50089  -4.22413 
 P                    -3.25329   0.0099    0.05503 
 O                    -0.49941   1.47123  -2.48025 
 O                     2.6563    2.33187  -3.96754 
 
                          Input orientation:                          
 ---------------------------------------------------------------------
 Center     Atomic      Atomic             Coordinates (Angstroms)
 Number     Number       Type             X           Y           Z
 ---------------------------------------------------------------------
      1          6           0       -5.055180    0.145553   -0.178352
      2          1           0       -5.279619    1.211701   -0.271455
      3          1           0       -5.280129   -0.305193   -1.148862
      4          6           0       -2.761225    0.819191    1.611905
      5          1           0       -3.259069    0.275250    2.419568
      6          1           0       -1.688642    0.643633    1.733388
      7          6           0       -2.763554   -1.743266    0.138597
      8          1           0       -1.690347   -1.761412    0.348194
      9          1           0       -3.259366   -2.166164    1.016875
     10          6           0       -2.452583    0.822325   -1.358454
     11          1           0       -2.806200    1.856289   -1.392198
     12          1           0       -2.809043    0.333855   -2.269256
     13          6           0       -0.924360    0.801103   -1.325670
     14          1           0       -0.548111   -0.233225   -1.313637
     15          1           0       -0.545691    1.302385   -0.421839
     16          6           0       -5.880378   -0.501343    0.940473
     17          1           0       -5.686458   -0.038776    1.910016
     18          1           0       -6.942269   -0.376726    0.725186
     19          1           0       -5.686566   -1.572421    1.023194
     20          6           0       -3.095260   -2.544067   -1.126613
     21          1           0       -2.776477   -3.578651   -0.994518
     22          1           0       -4.167303   -2.555009   -1.332239
     23          1           0       -2.578843   -2.150603   -2.004060
     24          6           0       -3.087976    2.316609    1.666107
     25          1           0       -4.159310    2.503253    1.570930
     26          1           0       -2.768838    2.722495    2.626757
     27          1           0       -2.568910    2.874757    0.884795
     28          6           0        0.924613    1.538120   -2.600962
     29          1           0        1.349207    0.527455   -2.638215
     30          1           0        1.353178    2.064651   -1.739430
     31          6           0        1.251998    2.285433   -3.880310
     32          1           0        0.819765    3.295792   -3.844245
     33          1           0        0.814691    1.761058   -4.742131
     34          6           0        3.129944    3.012046   -5.130120
     35          1           0        2.747139    4.042452   -5.130025
     36          1           0        2.741338    2.511389   -6.028224
     37          6           0        4.644379    2.997335   -5.114860
     38          1           0        5.019980    1.971994   -5.121403
     39          1           0        5.033525    3.513055   -5.996132
     40          1           0        5.025790    3.500892   -4.224129
     41         15           0       -3.253292    0.009904    0.055030
     42          8           0       -0.499405    1.471228   -2.480253
     43          8           0        2.656304    2.331865   -3.967544
 ---------------------------------------------------------------------
                    Distance matrix (angstroms):
                    1          2          3          4          5
     1  C    0.000000
     2  H    1.093486   0.000000
     3  H    1.093464   1.752373   0.000000
     4  C    2.986811   3.169135   3.902685   0.000000
     5  H    3.161016   3.493017   4.141895   1.093636   0.000000
     6  H    3.903385   4.151772   4.701746   1.093624   1.752938
     7  C    2.986577   3.902634   3.171554   2.955813   3.085899
     8  H    3.903315   4.701727   4.153105   3.066473   3.301435
     9  H    3.161890   4.141399   3.498159   3.084566   2.815679
    10  C    2.936694   3.053738   3.051269   2.986353   3.901687
    11  H    3.075378   2.790943   3.294168   3.178401   4.151426
    12  H    3.074487   3.296296   2.787460   3.911681   4.710735
    13  C    4.337022   4.499805   4.497541   3.464642   4.444569
    14  H    4.663262   5.055801   4.735433   3.816314   4.641623
    15  H    4.661871   4.737184   5.052502   3.046011   4.060914
    16  C    1.533361   2.182705   2.182681   3.453078   3.108389
    17  H    2.189468   2.547160   3.097227   3.062999   2.500095
    18  H    2.156446   2.506152   2.505969   4.438200   4.106332
    19  H    2.189474   3.097266   2.547329   3.824135   3.355069
    20  C    3.460425   4.428150   3.128371   4.350007   4.533297
    21  H    4.441656   5.453074   4.124030   5.112210   5.171212
    22  H    3.068031   4.068245   2.516681   4.693641   4.786576
    23  H    3.838983   4.647709   3.381397   4.682749   5.090772
    24  C    3.461994   3.127022   4.427576   1.533612   2.182687
    25  H    3.069417   2.513480   4.067047   2.189152   2.548454
    26  H    4.442592   4.121426   5.452410   2.156977   2.504448
    27  H    3.841923   3.383875   4.647424   2.188841   3.096657
    28  C    6.600470   6.635183   6.633643   5.643626   6.656107
    29  H    6.871168   7.071851   6.845405   5.919821   6.846969
    30  H    6.869276   6.846639   7.068642   5.450773   6.463129
    31  C    7.619979   7.539148   7.539286   6.958466   8.004937
    32  H    7.607743   7.369583   7.578977   6.980445   8.062004
    33  H    7.608766   7.578216   7.370740   7.351739   8.372161
    34  C    9.986643   9.877683   9.878452   9.217884  10.261936
    35  H   10.029011   9.800393   9.959353   9.283593  10.356771
    36  H   10.030148   9.958179   9.802308   9.566259  10.600490
    37  C   11.250921  11.186277  11.186228  10.238977  11.253526
    38  H   11.370070  11.409723  11.272041  10.354397  11.326422
    39  H   12.123061  12.017866  12.018590  11.220395  12.250490
    40  H   11.368930  11.272333  11.408572  10.093979  11.098755
    41  P    1.821996   2.378426   2.378384   1.822343   2.379387
    42  O    5.273637   5.272247   5.271015   4.720883   5.749292
    43  O    8.865942   8.825798   8.825305   7.922629   8.945194
                    6          7          8          9         10
     6  H    0.000000
     7  C    3.065303   0.000000
     8  H    2.775429   1.093633   0.000000
     9  H    3.297806   1.093638   1.752934   0.000000
    10  C    3.189831   2.986657   3.188942   3.901814   0.000000
    11  H    3.533944   3.911770   4.166756   4.710533   1.093282
    12  H    4.168023   3.180292   3.534497   4.153498   1.093264
    13  C    3.157018   3.464178   3.155161   4.443472   1.528722
    14  H    3.369577   3.049163   2.530166   4.064289   2.177891
    15  H    2.526914   3.809067   3.360066   4.633008   2.178059
    16  C    4.417050   3.449633   4.415306   3.105989   4.334390
    17  H    4.059484   3.819238   4.623383   3.348769   4.677856
    18  H    5.445934   4.435446   5.444462   4.104990   5.092795
    19  H    4.625869   3.058709   4.057229   2.498774   4.676078
    20  C    4.507728   1.533645   2.182060   2.182724   3.435022
    21  H    5.143203   2.157025   2.506973   2.504796   4.427860
    22  H    5.076725   2.189246   3.096605   2.548311   3.787788
    23  H    4.750656   2.188840   2.544404   3.096676   3.044840
    24  C    2.182089   4.349842   4.507828   4.532784   3.432867
    25  H    3.096575   4.693894   5.077227   4.787518   3.784141
    26  H    2.507309   5.112141   5.143969   5.170234   4.426350
    27  H    2.544189   4.681969   4.749092   5.089701   3.042725
    28  C    5.139630   5.645817   5.140277   6.657037   3.669011
    29  H    5.324748   5.457258   4.836987   6.469483   4.022231
    30  H    4.830365   5.913941   5.316011   6.839048   4.021484
    31  C    6.546486   6.964674   6.550923   8.009466   4.714272
    32  H    6.666037   7.354951   7.032249   8.372739   4.796400
    33  H    7.031903   6.993256   6.677905   8.073857   4.796412
    34  C    8.714120   9.225275   8.719692  10.267555   7.084134
    35  H    8.850681   9.570823   9.131648  10.602330   7.185477
    36  H    9.129943   9.297075   8.863147  10.369251   7.185854
    37  C    9.620061  10.244490   9.623897  11.257401   8.319142
    38  H    9.682888  10.102186   9.427794  11.106322   8.445160
    39  H   10.637979  11.227567  10.643351  12.255931   9.208143
    40  H    9.420166  10.354151   9.680107  11.323756   8.444695
    41  P    2.380468   1.822205   2.380400   2.379171   1.816342
    42  O    4.455779   4.724163   4.457400   5.751340   2.344016
    43  O    7.364055   7.927291   7.367081   8.948288   5.931845
                   11         12         13         14         15
    11  H    0.000000
    12  H    1.756999   0.000000
    13  C    2.158510   2.158867   0.000000
    14  H    3.077533   2.519246   1.100701   0.000000
    15  H    2.521568   3.077948   1.100720   1.775784   0.000000
    16  C    4.522207   4.520289   5.603025   5.795340   5.793808
    17  H    4.774073   5.087699   5.818302   6.068967   5.802047
    18  H    5.155263   5.153170   6.465951   6.712872   6.712026
    19  H    5.087895   4.770142   5.816303   5.801547   6.064753
    20  C    4.417830   3.109660   3.992818   3.444261   4.668212
    21  H    5.449551   4.115060   4.766786   4.032286   5.397118
    22  H    4.616898   3.326921   4.666927   4.299951   5.368835
    23  H    4.059711   2.509154   3.451101   2.876959   4.308162
    24  C    3.105563   4.415450   3.991080   4.672413   3.442584
    25  H    3.321084   4.612650   4.663958   5.371201   4.297843
    26  H    4.111412   5.447767   4.766081   5.403204   4.031505
    27  H    2.505650   4.057325   3.448295   4.310021   2.876293
    28  C    3.934629   3.937064   2.363951   2.638898   2.639307
    29  H    4.537154   4.179073   2.639463   2.435766   3.017197
    30  H    4.179044   4.538772   2.637220   3.012712   2.433680
    31  C    4.779523   4.784998   3.669599   4.021423   4.019837
    32  H    4.607855   4.941853   3.950780   4.552914   4.189392
    33  H    4.933758   4.613401   3.951964   4.193920   4.552575
    34  C    7.109546   7.115393   5.983267   6.214935   6.212982
    35  H    7.042033   7.266970   6.201562   6.610968   6.365352
    36  H    7.259275   7.048278   6.202938   6.370299   6.610431
    37  C    8.406624   8.411010   7.084649   7.200539   7.199592
    38  H    8.670032   8.491869   7.149388   7.096880   7.315119
    39  H    9.241340   9.246772   8.041411   8.192377   8.190693
    40  H    8.489088   8.673884   7.148021   7.313205   7.094522
    41  P    2.388200   2.388432   2.820683   3.041441   3.037929
    42  O    2.579426   2.583131   1.400970   2.066041   2.065846
    43  O    6.057849   6.061868   4.705729   4.887861   4.887190
                   16         17         18         19         20
    16  C    0.000000
    17  H    1.091598   0.000000
    18  H    1.090638   1.759288   0.000000
    19  H    1.091611   1.771587   1.759342   0.000000
    20  C    4.025226   4.712951   4.788111   3.504373   0.000000
    21  H    4.779981   5.425405   5.528429   4.069980   1.090613
    22  H    3.509614   4.376240   4.083914   2.970135   1.091640
    23  H    4.721278   5.425594   5.443796   4.376814   1.091519
    24  C    4.032977   3.515599   4.795306   4.721288   5.605846
    25  H    3.519538   2.984807   4.093217   4.386758   5.821029
    26  H    4.787313   4.080544   5.535221   5.434230   6.475416
    27  H    4.729373   4.388492   5.451962   5.432893   5.804004
    28  C    7.937826   8.157315   8.753155   8.155836   5.915855
    29  H    8.132179   8.396881   8.993252   8.204724   5.610033
    30  H    8.129609   8.203617   8.991612   8.391566   6.434627
    31  C    9.048583   9.331238   9.769529   9.331187   7.057306
    32  H    9.066624   9.303859   9.727089   9.472265   7.537698
    33  H    9.068318   9.473933   9.727903   9.306847   6.847904
    34  C   11.418490  11.687599  12.133337  11.688090   9.254816
    35  H   11.486125  11.719392  12.153076  11.853956   9.671772
    36  H   11.487962  11.855241  12.154094  11.723036   9.145999
    37  C   12.636389  12.856634  13.406746  12.856391  10.320623
    38  H   12.715406  12.965796  13.520151  12.843250  10.109910
    39  H   13.540501  13.785526  14.273267  13.785984  11.246248
    40  H   12.713595  12.841699  13.519100  12.962541  10.587143
    41  P    2.819036   3.060006   3.769236   3.059725   2.818514
    42  O    6.674374   6.961328   7.429688   6.960214   4.969245
    43  O   10.246494  10.476990  11.022286  10.476373   8.057673
                   21         22         23         24         25
    21  H    0.000000
    22  H    1.759629   0.000000
    23  H    1.759987   1.771466   0.000000
    24  C    6.475341   5.821313   5.803906   0.000000
    25  H    6.744131   5.832192   6.077566   1.091628   0.000000
    26  H    7.267608   6.743990   6.725150   1.090615   1.759616
    27  H    6.724684   6.078853   5.796536   1.091516   1.771488
    28  C    6.516140   6.655146   5.122223   5.908874   6.646987
    29  H    6.048398   6.452832   4.796220   6.435593   7.208636
    30  H    7.032482   7.209908   5.770545   5.602233   6.445027
    31  C    7.677492   7.700089   6.154191   7.042662   7.684121
    32  H    8.265099   8.087824   6.678326   6.825923   7.398880
    33  H    7.446716   7.421325   5.857832   7.523627   8.071324
    34  C    9.768639   9.933067   8.307553   9.237687   9.914442
    35  H   10.280757  10.283928   8.745952   9.122199   9.745305
    36  H    9.637067   9.769851   8.138329   9.655132  10.264802
    37  C   10.737314  11.080726   9.399642  10.306998  11.065661
    38  H   10.422360  10.920517   9.189981  10.579603  11.372287
    39  H   11.674955  11.967812  10.293775  11.229433  11.949408
    40  H   11.019332  11.382000   9.731318  10.096069  10.906148
    41  P    3.769168   3.055930   3.059824   2.818472   3.055423
    42  O    5.735307   5.566147   4.203389   4.960612   5.556263
    43  O    8.560852   8.797044   7.166209   8.045807   8.783887
                   26         27         28         29         30
    26  H    0.000000
    27  H    1.759996   0.000000
    28  C    6.509483   5.112906   0.000000
    29  H    7.035370   5.768281   1.096864   0.000000
    30  H    6.040477   4.788069   1.096877   1.780675   0.000000
    31  C    7.661597   6.136193   1.517363   2.154701   2.154611
    32  H    7.421631   5.833027   2.155495   3.065698   2.496094
    33  H    8.250246   6.659683   2.155548   2.496787   3.065673
    34  C    9.749288   8.287037   3.665049   3.943832   3.943505
    35  H    9.609160   8.111840   3.998680   4.529739   4.165448
    36  H   10.262324   8.724712   3.999233   4.167275   4.529936
    37  C   10.722125   9.383092   4.720768   4.805438   4.805771
    38  H   11.011944   9.720116   4.828343   4.661276   4.989165
    39  H   11.655731  10.273831   5.684251   5.810647   5.810537
    40  H   10.406573   9.174564   4.827711   4.987355   4.660965
    41  P    3.769168   3.060110   5.181180   5.357651   5.353656
    42  O    5.726914   4.192409   1.430690   2.081592   2.081594
    43  O    8.548074   7.151419   2.344426   2.594516   2.595001
                   31         32         33         34         35
    31  C    0.000000
    32  H    1.099523   0.000000
    33  H    1.099519   1.778098   0.000000
    34  C    2.369952   2.659119   2.660057   0.000000
    35  H    2.623804   2.434235   3.014892   1.099216   0.000000
    36  H    2.623495   3.012888   2.434954   1.099210   1.775091
    37  C    3.679561   4.041189   4.041512   1.514583   2.166107
    38  H    3.979478   4.585344   4.227623   2.157318   3.074521
    39  H    4.503743   4.736412   4.737148   2.150490   2.501592
    40  H    3.979580   4.228123   4.585706   2.157318   2.511212
    41  P    6.400201   6.526193   6.528995   8.754675   8.896708
    42  O    2.385477   2.632436   2.631908   4.750588   4.916557
    43  O    1.407779   2.077795   2.077822   1.427783   2.070198
                   36         37         38         39         40
    36  H    0.000000
    37  C    2.166089   0.000000
    38  H    2.511072   1.091990   0.000000
    39  H    2.501697   1.092722   1.772062   0.000000
    40  H    3.074507   1.091992   1.772756   1.772062   0.000000
    41  P    8.899382   9.900794   9.954511  10.842507   9.951954
    42  O    4.916548   5.977346   6.139222   6.866133   6.139089
    43  O    2.070232   2.389901   2.654781   3.340892   2.654604
                   41         42         43
    41  P    0.000000
    42  O    4.018336   0.000000
    43  O    7.516377   3.593220   0.000000
 Symmetry turned off by external request.
 Stoichiometry    C12H28O2P
 Rotational constants (GHZ):      1.1338118      0.1457373      0.1378424
 Standard basis: CC-pVTZ (5D, 7F)
   846 basis functions,  1299 primitive gaussians,   949 cartesian basis functions
    65 alpha electrons       65 beta electrons
       nuclear repulsion energy      1184.3613543327 Hartrees.
 NAtoms=   43 NActive=   43 NUniq=   43 SFac= 1.00D+00 NAtFMM=   60 NAOKFM=F Big=F
 Integral buffers will be    131072 words long.
 Raffenetti 1 integral format.
 Two-electron integral symmetry is turned off.
 One-electron integrals computed using PRISM.
 NBasis=   846 RedAO= T EigKep=  2.85D-04  NBF=   846
 NBsUse=   846 1.00D-06 EigRej= -1.00D+00 NBFU=   846
 ExpMin= 9.71D-02 ExpMax= 3.12D+05 ExpMxC= 9.87D+02 IAcc=3 IRadAn=         5 AccDes= 0.00D+00
 Harris functional with IExCor=  205 and IRadAn=       5 diagonalized for initial guess.
 HarFok:  IExCor=  205 AccDes= 0.00D+00 IRadAn=         5 IDoV= 1 UseB2=F ITyADJ=14
 ICtDFT=  3500011 ScaDFX=  1.000000  1.000000  1.000000  1.000000
 FoFCou: FMM=F IPFlag=           0 FMFlag=      100000 FMFlg1=           0
         NFxFlg=           0 DoJE=T BraDBF=F KetDBF=T FulRan=T
         wScrn=  0.000000 ICntrl=     500 IOpCl=  0 I1Cent=   200000004 NGrid=           0
         NMat0=    1 NMatS0=      1 NMatT0=    0 NMatD0=    1 NMtDS0=    0 NMtDT0=    0
 Symmetry not used in FoFCou.
 Requested convergence on RMS density matrix=1.00D-11 within 128 cycles.
 Requested convergence on MAX density matrix=1.00D-09.
 Requested convergence on             energy=1.00D-09.
 No special actions if energy rises.
 Integral accuracy reduced to 1.0D-05 until final iterations.
 Initial convergence to 1.0D-05 achieved.  Increase integral accuracy.
 SCF Done:  E(RHF) =  -961.229319989     A.U. after   17 cycles
            NFock= 17  Conv=0.64D-11     -V/T= 2.0010
 Range of M.O.s used for correlation:     1   846
 NBasis=   846 NAE=    65 NBE=    65 NFC=     0 NFV=     0
 NROrb=    846 NOA=    65 NOB=    65 NVA=   781 NVB=   781

 **** Warning!!: The largest alpha MO coefficient is  0.13297938D+02

 Disk-based method using ON**2 memory for 65 occupieds at a time.
 Estimated scratch disk usage= 74137243132 words.
 Actual    scratch disk usage= 67011620348 words.
 JobTyp=1 Pass  1:  I=   1 to  65 NPSUse= 48 ParTrn=T ParDer=T DoDerP=T.
 (rs|ai) integrals will be sorted in core.
 Spin components of T(2) and E(2):
     alpha-alpha T2 =       0.1022128404D+00 E2=     -0.3363857650D+00
     alpha-beta  T2 =       0.6249152602D+00 E2=     -0.2313696440D+01
     beta-beta   T2 =       0.1022128404D+00 E2=     -0.3363857650D+00
 ANorm=    0.1352531309D+01
 E2 =    -0.2986467970D+01 EUMP2 =    -0.96421578795871D+03
          Differentiating once with respect to electric field.
                with respect to dipole field.
          Electric field/nuclear overlap derivatives assumed to be zero.
          There are     1 degrees of freedom in the 1st order CPHF.  IDoFFX=0 NUNeed=     1.
 LinEq1:  Iter=  0 NonCon=     1 RMS=1.52D-03 Max=2.55D-02 NDo=     1
 AX will form     1 AO Fock derivatives at one time.
 LinEq1:  Iter=  1 NonCon=     1 RMS=3.77D-04 Max=9.86D-03 NDo=     1
 LinEq1:  Iter=  2 NonCon=     1 RMS=9.19D-05 Max=1.91D-03 NDo=     1
 LinEq1:  Iter=  3 NonCon=     1 RMS=3.15D-05 Max=7.16D-04 NDo=     1
 LinEq1:  Iter=  4 NonCon=     1 RMS=9.65D-06 Max=1.88D-04 NDo=     1
 LinEq1:  Iter=  5 NonCon=     1 RMS=2.15D-06 Max=4.87D-05 NDo=     1
 LinEq1:  Iter=  6 NonCon=     1 RMS=6.74D-07 Max=1.87D-05 NDo=     1
 LinEq1:  Iter=  7 NonCon=     1 RMS=1.97D-07 Max=4.50D-06 NDo=     1
 LinEq1:  Iter=  8 NonCon=     1 RMS=5.78D-08 Max=1.60D-06 NDo=     1
 LinEq1:  Iter=  9 NonCon=     1 RMS=2.29D-08 Max=4.87D-07 NDo=     1
 LinEq1:  Iter= 10 NonCon=     1 RMS=6.00D-09 Max=1.35D-07 NDo=     1
 LinEq1:  Iter= 11 NonCon=     1 RMS=2.02D-09 Max=4.74D-08 NDo=     1
 LinEq1:  Iter= 12 NonCon=     1 RMS=4.87D-10 Max=1.14D-08 NDo=     1
 LinEq1:  Iter= 13 NonCon=     1 RMS=9.69D-11 Max=2.02D-09 NDo=     1
 LinEq1:  Iter= 14 NonCon=     0 RMS=2.43D-11 Max=4.92D-10 NDo=     1
 Linear equations converged to 1.000D-10 1.000D-09 after    14 iterations.
 End of Minotr F.D. properties file   721 does not exist.
 End of Minotr F.D. properties file   722 does not exist.
 End of Minotr F.D. properties file   788 does not exist.

 **********************************************************************

            Population analysis using the MP2 density.

 **********************************************************************

 Alpha  occ. eigenvalues --  -80.16726 -20.67483 -20.62797 -11.42209 -11.40112
 Alpha  occ. eigenvalues --  -11.40111 -11.40040 -11.39320 -11.37246 -11.36961
 Alpha  occ. eigenvalues --  -11.36935 -11.36933 -11.35642 -11.34188 -11.27444
 Alpha  occ. eigenvalues --   -7.70650  -5.60165  -5.60152  -5.60150  -1.49694
 Alpha  occ. eigenvalues --   -1.44732  -1.25824  -1.18717  -1.18432  -1.17746
 Alpha  occ. eigenvalues --   -1.11488  -1.06955  -1.04598  -1.02075  -0.99875
 Alpha  occ. eigenvalues --   -0.98159  -0.92840  -0.89949  -0.88064  -0.81959
 Alpha  occ. eigenvalues --   -0.80694  -0.79714  -0.77359  -0.77230  -0.74996
 Alpha  occ. eigenvalues --   -0.74467  -0.73975  -0.73127  -0.71790  -0.71101
 Alpha  occ. eigenvalues --   -0.70898  -0.70193  -0.68453  -0.67201  -0.67062
 Alpha  occ. eigenvalues --   -0.67030  -0.66103  -0.66042  -0.64840  -0.62868
 Alpha  occ. eigenvalues --   -0.62518  -0.61511  -0.60876  -0.60225  -0.59471
 Alpha  occ. eigenvalues --   -0.56754  -0.56729  -0.54843  -0.54087  -0.49601
 Alpha virt. eigenvalues --   -0.00948   0.01260   0.01764   0.02269   0.03253
 Alpha virt. eigenvalues --    0.03505   0.04745   0.04976   0.05831   0.07159
 Alpha virt. eigenvalues --    0.08262   0.08979   0.09373   0.09836   0.10095
 Alpha virt. eigenvalues --    0.10108   0.10224   0.10726   0.11215   0.11633
 Alpha virt. eigenvalues --    0.11854   0.12356   0.12909   0.14364   0.15030
 Alpha virt. eigenvalues --    0.15039   0.15262   0.16369   0.16848   0.17043
 Alpha virt. eigenvalues --    0.17322   0.17594   0.18665   0.18890   0.19779
 Alpha virt. eigenvalues --    0.19796   0.20258   0.22458   0.24253   0.25698
 Alpha virt. eigenvalues --    0.25741   0.26422   0.26880   0.27775   0.27906
 Alpha virt. eigenvalues --    0.28554   0.28768   0.29226   0.29719   0.30022
 Alpha virt. eigenvalues --    0.31426   0.33503   0.34215   0.34344   0.36068
 Alpha virt. eigenvalues --    0.36126   0.36881   0.38042   0.38487   0.38645
 Alpha virt. eigenvalues --    0.39464   0.40933   0.41107   0.41348   0.41616
 Alpha virt. eigenvalues --    0.42212   0.42524   0.43702   0.45316   0.45756
 Alpha virt. eigenvalues --    0.45908   0.46668   0.46841   0.46901   0.47906
 Alpha virt. eigenvalues --    0.48086   0.48692   0.48997   0.49366   0.49484
 Alpha virt. eigenvalues --    0.50186   0.50374   0.50500   0.51278   0.51864
 Alpha virt. eigenvalues --    0.52805   0.53447   0.53733   0.54347   0.54550
 Alpha virt. eigenvalues --    0.55004   0.55141   0.55518   0.55950   0.56110
 Alpha virt. eigenvalues --    0.56507   0.57171   0.57406   0.57583   0.58238
 Alpha virt. eigenvalues --    0.58816   0.58980   0.59702   0.59807   0.60363
 Alpha virt. eigenvalues --    0.61173   0.61790   0.62136   0.62373   0.62506
 Alpha virt. eigenvalues --    0.63611   0.63791   0.63962   0.66903   0.67846
 Alpha virt. eigenvalues --    0.69266   0.70969   0.71414   0.72413   0.72561
 Alpha virt. eigenvalues --    0.72841   0.74303   0.74408   0.75903   0.76826
 Alpha virt. eigenvalues --    0.77829   0.80055   0.82261   0.82530   0.83074
 Alpha virt. eigenvalues --    0.84113   0.84368   0.84974   0.85868   0.86871
 Alpha virt. eigenvalues --    0.87040   0.87771   0.88658   0.89164   0.89331
 Alpha virt. eigenvalues --    0.90778   0.91238   0.91617   0.91977   0.92457
 Alpha virt. eigenvalues --    0.93170   0.93282   0.94121   0.96549   0.96874
 Alpha virt. eigenvalues --    0.98250   0.98655   0.99952   1.00754   1.01350
 Alpha virt. eigenvalues --    1.02615   1.03019   1.03402   1.03456   1.04926
 Alpha virt. eigenvalues --    1.05824   1.07066   1.07384   1.07733   1.08702
 Alpha virt. eigenvalues --    1.09089   1.10107   1.10138   1.10487   1.11319
 Alpha virt. eigenvalues --    1.11625   1.12260   1.12341   1.13245   1.14107
 Alpha virt. eigenvalues --    1.14218   1.14288   1.15408   1.15500   1.16337
 Alpha virt. eigenvalues --    1.16963   1.17667   1.17695   1.17711   1.19591
 Alpha virt. eigenvalues --    1.20064   1.20657   1.20831   1.21617   1.21682
 Alpha virt. eigenvalues --    1.22100   1.22492   1.22864   1.22876   1.25135
 Alpha virt. eigenvalues --    1.25489   1.25899   1.26108   1.26667   1.26975
 Alpha virt. eigenvalues --    1.27593   1.28195   1.29434   1.30385   1.30976
 Alpha virt. eigenvalues --    1.31336   1.31370   1.32214   1.32745   1.33469
 Alpha virt. eigenvalues --    1.33550   1.33794   1.35005   1.35173   1.37521
 Alpha virt. eigenvalues --    1.37725   1.38401   1.38460   1.39237   1.39283
 Alpha virt. eigenvalues --    1.39825   1.39972   1.40701   1.41308   1.41705
 Alpha virt. eigenvalues --    1.42297   1.42654   1.43448   1.43516   1.44606
 Alpha virt. eigenvalues --    1.45222   1.45536   1.46196   1.46626   1.48000
 Alpha virt. eigenvalues --    1.48257   1.48645   1.49134   1.49276   1.50509
 Alpha virt. eigenvalues --    1.50923   1.51315   1.51957   1.52741   1.53675
 Alpha virt. eigenvalues --    1.53841   1.54354   1.55947   1.56216   1.56967
 Alpha virt. eigenvalues --    1.57575   1.57760   1.59343   1.59510   1.60984
 Alpha virt. eigenvalues --    1.61339   1.63084   1.64570   1.65778   1.66130
 Alpha virt. eigenvalues --    1.66245   1.66721   1.68164   1.69263   1.69877
 Alpha virt. eigenvalues --    1.70376   1.71793   1.73195   1.75555   1.76001
 Alpha virt. eigenvalues --    1.76239   1.76329   1.77325   1.78829   1.80222
 Alpha virt. eigenvalues --    1.82669   1.83673   1.86130   1.87837   1.91388
 Alpha virt. eigenvalues --    1.93459   1.95263   1.96552   1.97839   2.00475
 Alpha virt. eigenvalues --    2.00994   2.02687   2.04569   2.06881   2.07615
 Alpha virt. eigenvalues --    2.12120   2.18800   2.18918   2.20824   2.21364
 Alpha virt. eigenvalues --    2.24895   2.25622   2.27698   2.28785   2.33348
 Alpha virt. eigenvalues --    2.42568   2.43132   2.43651   2.43779   2.44234
 Alpha virt. eigenvalues --    2.45827   2.48093   2.49474   2.50302   2.50880
 Alpha virt. eigenvalues --    2.51810   2.53733   2.54359   2.54973   2.55231
 Alpha virt. eigenvalues --    2.57299   2.57682   2.58141   2.59915   2.60623
 Alpha virt. eigenvalues --    2.62765   2.64010   2.64073   2.64908   2.66545
 Alpha virt. eigenvalues --    2.66919   2.67266   2.68770   2.69460   2.69985
 Alpha virt. eigenvalues --    2.70472   2.70717   2.72112   2.73358   2.74267
 Alpha virt. eigenvalues --    2.75040   2.75295   2.76281   2.76813   2.77939
 Alpha virt. eigenvalues --    2.78584   2.78903   2.79471   2.79971   2.80448
 Alpha virt. eigenvalues --    2.80647   2.83875   2.84684   2.85668   2.86076
 Alpha virt. eigenvalues --    2.87697   2.87863   2.89896   2.90928   2.92843
 Alpha virt. eigenvalues --    2.93662   2.94124   2.94274   2.96267   2.96922
 Alpha virt. eigenvalues --    2.97653   2.99031   2.99834   3.00268   3.00607
 Alpha virt. eigenvalues --    3.01274   3.01810   3.02152   3.02447   3.02946
 Alpha virt. eigenvalues --    3.03672   3.04406   3.05073   3.07021   3.07069
 Alpha virt. eigenvalues --    3.07482   3.08626   3.09517   3.09656   3.10600
 Alpha virt. eigenvalues --    3.11407   3.11565   3.11840   3.12810   3.13157
 Alpha virt. eigenvalues --    3.13972   3.15681   3.16170   3.17664   3.18591
 Alpha virt. eigenvalues --    3.18756   3.19772   3.20156   3.20618   3.20914
 Alpha virt. eigenvalues --    3.21476   3.21921   3.23064   3.23223   3.23505
 Alpha virt. eigenvalues --    3.23965   3.24375   3.26239   3.26455   3.26883
 Alpha virt. eigenvalues --    3.27139   3.27507   3.28412   3.28716   3.29385
 Alpha virt. eigenvalues --    3.29520   3.29758   3.29976   3.30465   3.30586
 Alpha virt. eigenvalues --    3.31646   3.31730   3.32096   3.32835   3.33120
 Alpha virt. eigenvalues --    3.33505   3.33686   3.34456   3.34622   3.35074
 Alpha virt. eigenvalues --    3.35144   3.36729   3.36949   3.37115   3.38002
 Alpha virt. eigenvalues --    3.39048   3.39393   3.39987   3.41061   3.41944
 Alpha virt. eigenvalues --    3.42077   3.42158   3.43423   3.44841   3.44875
 Alpha virt. eigenvalues --    3.45264   3.45903   3.45936   3.47361   3.48547
 Alpha virt. eigenvalues --    3.49731   3.49906   3.50073   3.51103   3.51760
 Alpha virt. eigenvalues --    3.51879   3.52434   3.53143   3.53347   3.55519
 Alpha virt. eigenvalues --    3.56069   3.56452   3.56456   3.57539   3.57612
 Alpha virt. eigenvalues --    3.61014   3.62433   3.62784   3.63383   3.63407
 Alpha virt. eigenvalues --    3.63774   3.64507   3.65064   3.65832   3.66685
 Alpha virt. eigenvalues --    3.66749   3.67061   3.67830   3.68262   3.68953
 Alpha virt. eigenvalues --    3.69190   3.69905   3.70189   3.70979   3.71238
 Alpha virt. eigenvalues --    3.71387   3.72635   3.73098   3.74417   3.74619
 Alpha virt. eigenvalues --    3.74796   3.75204   3.75438   3.76366   3.76494
 Alpha virt. eigenvalues --    3.79053   3.79206   3.79427   3.79456   3.80479
 Alpha virt. eigenvalues --    3.80534   3.81328   3.82192   3.82848   3.84454
 Alpha virt. eigenvalues --    3.86024   3.86302   3.86857   3.86901   3.88763
 Alpha virt. eigenvalues --    3.89736   3.90297   3.91745   3.91857   3.92743
 Alpha virt. eigenvalues --    3.93976   3.94251   3.95117   3.95660   3.96193
 Alpha virt. eigenvalues --    3.97366   3.97632   3.98196   3.98740   3.99788
 Alpha virt. eigenvalues --    4.01608   4.02016   4.02065   4.03241   4.03887
 Alpha virt. eigenvalues --    4.04805   4.05660   4.05732   4.06317   4.06427
 Alpha virt. eigenvalues --    4.06632   4.06968   4.08009   4.08405   4.09585
 Alpha virt. eigenvalues --    4.09839   4.09858   4.10604   4.10891   4.11944
 Alpha virt. eigenvalues --    4.12091   4.13113   4.13749   4.14008   4.14734
 Alpha virt. eigenvalues --    4.14777   4.15597   4.16659   4.17361   4.18218
 Alpha virt. eigenvalues --    4.19411   4.20638   4.21011   4.22427   4.24045
 Alpha virt. eigenvalues --    4.25273   4.25808   4.26091   4.26366   4.27273
 Alpha virt. eigenvalues --    4.27301   4.27415   4.27933   4.28154   4.28902
 Alpha virt. eigenvalues --    4.29103   4.29596   4.30045   4.30580   4.31729
 Alpha virt. eigenvalues --    4.31946   4.32149   4.34022   4.34178   4.34194
 Alpha virt. eigenvalues --    4.34693   4.36263   4.36846   4.38112   4.38835
 Alpha virt. eigenvalues --    4.40308   4.40433   4.41209   4.41264   4.41934
 Alpha virt. eigenvalues --    4.42757   4.43097   4.43251   4.43454   4.45163
 Alpha virt. eigenvalues --    4.45484   4.45756   4.46657   4.47196   4.48592
 Alpha virt. eigenvalues --    4.49134   4.49614   4.50604   4.51232   4.51562
 Alpha virt. eigenvalues --    4.52682   4.53183   4.53262   4.53581   4.55936
 Alpha virt. eigenvalues --    4.57043   4.57243   4.57687   4.57960   4.59660
 Alpha virt. eigenvalues --    4.60790   4.61676   4.62765   4.65078   4.66172
 Alpha virt. eigenvalues --    4.66699   4.68330   4.68522   4.71195   4.71623
 Alpha virt. eigenvalues --    4.71697   4.72280   4.74046   4.78739   4.79233
 Alpha virt. eigenvalues --    4.81707   4.84598   4.85483   4.86097   4.88860
 Alpha virt. eigenvalues --    4.90424   4.91889   4.92435   4.92914   4.95430
 Alpha virt. eigenvalues --    4.97555   4.97818   4.97940   4.98471   5.00246
 Alpha virt. eigenvalues --    5.01887   5.02898   5.04591   5.04762   5.04960
 Alpha virt. eigenvalues --    5.06481   5.07252   5.07408   5.08661   5.09675
 Alpha virt. eigenvalues --    5.09763   5.09936   5.10844   5.11492   5.12583
 Alpha virt. eigenvalues --    5.12679   5.12789   5.13737   5.13930   5.15193
 Alpha virt. eigenvalues --    5.15346   5.17109   5.17525   5.17951   5.20051
 Alpha virt. eigenvalues --    5.21464   5.22781   5.23457   5.24579   5.25036
 Alpha virt. eigenvalues --    5.26017   5.28196   5.29155   5.30077   5.30870
 Alpha virt. eigenvalues --    5.32028   5.32220   5.33802   5.34865   5.34959
 Alpha virt. eigenvalues --    5.36063   5.38179   5.39541   5.40656   5.42703
 Alpha virt. eigenvalues --    5.43871   5.44782   5.47061   5.48596   5.48968
 Alpha virt. eigenvalues --    5.49933   5.51101   5.53033   5.53297   5.54607
 Alpha virt. eigenvalues --    5.55550   5.57845   5.58081   5.58253   5.58780
 Alpha virt. eigenvalues --    5.59327   5.60255   5.61194   5.61394   5.62452
 Alpha virt. eigenvalues --    5.63124   5.63376   5.64156   5.65130   5.66147
 Alpha virt. eigenvalues --    5.66211   5.67538   5.68160   5.68915   5.70631
 Alpha virt. eigenvalues --    5.70867   5.72201   5.72561   5.75414   5.77858
 Alpha virt. eigenvalues --    5.78343   5.79901   5.81154   5.82647   5.82928
 Alpha virt. eigenvalues --    5.84302   5.85422   5.87550   5.95863   6.00224
 Alpha virt. eigenvalues --    6.10025   6.13787   6.14090   6.14451   6.15930
 Alpha virt. eigenvalues --    6.17872   6.18725   6.19248   6.20023   6.20432
 Alpha virt. eigenvalues --    6.21830   6.24145   6.28149   6.29422   6.31032
 Alpha virt. eigenvalues --    6.31755   6.35166   6.36778   6.42734   6.51339
 Alpha virt. eigenvalues --    6.55801   6.59779   6.63418   6.68386   6.73227
 Alpha virt. eigenvalues --    6.85676   6.87751   7.23432   7.25703   7.28932
 Alpha virt. eigenvalues --    7.30918   7.42658   7.46558   7.77247   7.80701
 Alpha virt. eigenvalues --    7.84171   7.87733  11.30486  11.55160  12.54696
 Alpha virt. eigenvalues --   12.57318  12.87128  13.00260  13.20698  13.29060
 Alpha virt. eigenvalues --   13.56484  13.75838  13.98774  14.02432  14.04895
 Alpha virt. eigenvalues --   14.11935
          Condensed to atoms (all electrons):
               1          2          3          4          5          6
     1  C    5.263932   0.345080   0.345023  -0.027597  -0.003629   0.002635
     2  H    0.345080   0.530928  -0.017746  -0.003812   0.000235  -0.000120
     3  H    0.345023  -0.017746   0.531118   0.002626  -0.000135  -0.000081
     4  C   -0.027597  -0.003812   0.002626   5.269802   0.344829   0.344721
     5  H   -0.003629   0.000235  -0.000135   0.344829   0.532409  -0.018245
     6  H    0.002635  -0.000120  -0.000081   0.344721  -0.018245   0.533903
     7  C   -0.027563   0.002631  -0.003804  -0.030898   0.000352  -0.000080
     8  H    0.002637  -0.000081  -0.000121  -0.000101  -0.000091   0.001654
     9  H   -0.003647  -0.000137   0.000236   0.000375   0.001407  -0.000093
    10  C   -0.030199   0.001364   0.001379  -0.024430   0.002090  -0.004460
    11  H    0.000340   0.001052  -0.000087  -0.003626  -0.000171   0.000339
    12  H    0.000346  -0.000088   0.001069   0.002276  -0.000031  -0.000115
    13  C    0.000370   0.000060   0.000062   0.003017  -0.000004   0.000171
    14  H    0.000043  -0.000033   0.000023  -0.000996  -0.000110   0.000591
    15  H    0.000051   0.000023  -0.000033   0.001287   0.000444  -0.001632
    16  C    0.258109  -0.025310  -0.025330   0.002579   0.000204   0.000034
    17  H   -0.036787  -0.003329   0.004949   0.001842  -0.001068   0.000143
    18  H   -0.025053  -0.004315  -0.004324  -0.000093   0.000017   0.000011
    19  H   -0.036722   0.004945  -0.003323  -0.000756   0.000166  -0.000057
    20  C    0.002185   0.000012  -0.000143   0.001670  -0.000001   0.000004
    21  H   -0.000106   0.000011   0.000013  -0.000122  -0.000001  -0.000001
    22  H    0.001766   0.000132  -0.001032   0.000078  -0.000001   0.000003
    23  H   -0.000742  -0.000051   0.000210   0.000082  -0.000003  -0.000008
    24  C    0.002111  -0.000135   0.000012   0.256649  -0.024965  -0.024363
    25  H    0.001736  -0.001006   0.000131  -0.037418  -0.003238   0.005010
    26  H   -0.000105   0.000012   0.000011  -0.025171  -0.004331  -0.004360
    27  H   -0.000722   0.000205  -0.000051  -0.035469   0.004818  -0.003463
    28  C   -0.000001   0.000000   0.000000  -0.000004  -0.000001  -0.000009
    29  H    0.000001  -0.000000   0.000000  -0.000010  -0.000000   0.000011
    30  H    0.000001   0.000000  -0.000000  -0.000003   0.000002   0.000019
    31  C   -0.000000   0.000000   0.000000   0.000001  -0.000000  -0.000000
    32  H    0.000000  -0.000000   0.000000  -0.000000  -0.000000   0.000000
    33  H    0.000000   0.000000  -0.000000  -0.000000   0.000000   0.000000
    34  C    0.000000  -0.000000  -0.000000  -0.000000   0.000000   0.000000
    35  H    0.000000   0.000000   0.000000   0.000000   0.000000  -0.000000
    36  H    0.000000   0.000000   0.000000   0.000000   0.000000   0.000000
    37  C    0.000000  -0.000000  -0.000000   0.000000   0.000000   0.000000
    38  H    0.000000  -0.000000   0.000000  -0.000000  -0.000000  -0.000000
    39  H    0.000000  -0.000000  -0.000000  -0.000000   0.000000   0.000000
    40  H    0.000000   0.000000  -0.000000   0.000000   0.000000   0.000000
    41  P    0.283466  -0.020322  -0.020349   0.278316  -0.020702  -0.019742
    42  O   -0.000011  -0.000010  -0.000010  -0.000027  -0.000002  -0.000045
    43  O    0.000000  -0.000000  -0.000000  -0.000000   0.000000   0.000000
               7          8          9         10         11         12
     1  C   -0.027563   0.002637  -0.003647  -0.030199   0.000340   0.000346
     2  H    0.002631  -0.000081  -0.000137   0.001364   0.001052  -0.000088
     3  H   -0.003804  -0.000121   0.000236   0.001379  -0.000087   0.001069
     4  C   -0.030898  -0.000101   0.000375  -0.024430  -0.003626   0.002276
     5  H    0.000352  -0.000091   0.001407   0.002090  -0.000171  -0.000031
     6  H   -0.000080   0.001654  -0.000093  -0.004460   0.000339  -0.000115
     7  C    5.270296   0.344699   0.344755  -0.024389   0.002278  -0.003617
     8  H    0.344699   0.533712  -0.018230  -0.004490  -0.000116   0.000342
     9  H    0.344755  -0.018230   0.532574   0.002090  -0.000030  -0.000171
    10  C   -0.024389  -0.004490   0.002090   5.406500   0.324314   0.324451
    11  H    0.002278  -0.000116  -0.000030   0.324314   0.528673  -0.016618
    12  H   -0.003617   0.000342  -0.000171   0.324451  -0.016618   0.528580
    13  C    0.003055   0.000204  -0.000007   0.244974  -0.022906  -0.022899
    14  H    0.001368  -0.001665   0.000443  -0.039016   0.008645  -0.009778
    15  H   -0.001052   0.000609  -0.000112  -0.039371  -0.009729   0.008615
    16  C    0.002616   0.000035   0.000206   0.000643   0.000089   0.000088
    17  H   -0.000783  -0.000057   0.000169   0.000077  -0.000004  -0.000000
    18  H   -0.000093   0.000011   0.000018  -0.000140   0.000000   0.000000
    19  H    0.001882   0.000146  -0.001112   0.000076  -0.000001  -0.000004
    20  C    0.256572  -0.024315  -0.024992   0.003465  -0.000088  -0.000101
    21  H   -0.025170  -0.004364  -0.004324  -0.000017   0.000009   0.000002
    22  H   -0.037365   0.005003  -0.003248  -0.001473  -0.000053   0.000290
    23  H   -0.035524  -0.003462   0.004826   0.003880   0.000113  -0.001404
    24  C    0.001675   0.000002   0.000000   0.003487  -0.000122  -0.000086
    25  H    0.000079   0.000003  -0.000001  -0.001490   0.000293  -0.000053
    26  H   -0.000122  -0.000001  -0.000001  -0.000015   0.000002   0.000009
    27  H    0.000081  -0.000008  -0.000003   0.003875  -0.001390   0.000110
    28  C   -0.000004  -0.000008  -0.000001   0.004214  -0.000006  -0.000001
    29  H   -0.000002   0.000018   0.000001   0.000337   0.000306  -0.000419
    30  H   -0.000011   0.000012  -0.000000   0.000352  -0.000419   0.000303
    31  C    0.000001  -0.000000  -0.000000  -0.000328  -0.000034  -0.000033
    32  H   -0.000000   0.000000   0.000000   0.000068   0.000113  -0.000038
    33  H   -0.000000   0.000000  -0.000000   0.000072  -0.000038   0.000110
    34  C   -0.000000   0.000000   0.000000   0.000000   0.000000   0.000000
    35  H    0.000000   0.000000   0.000000  -0.000000  -0.000000   0.000000
    36  H    0.000000  -0.000000   0.000000  -0.000000   0.000000  -0.000000
    37  C    0.000000   0.000000   0.000000   0.000000   0.000000   0.000000
    38  H    0.000000   0.000000   0.000000  -0.000000  -0.000000   0.000000
    39  H   -0.000000   0.000000   0.000000  -0.000000  -0.000000  -0.000000
    40  H   -0.000000  -0.000000  -0.000000  -0.000000   0.000000  -0.000000
    41  P    0.278203  -0.019724  -0.020721   0.174956  -0.011879  -0.011860
    42  O   -0.000030  -0.000044  -0.000002  -0.037174   0.007506   0.007425
    43  O   -0.000000   0.000000   0.000000   0.000004   0.000001   0.000001
              13         14         15         16         17         18
     1  C    0.000370   0.000043   0.000051   0.258109  -0.036787  -0.025053
     2  H    0.000060  -0.000033   0.000023  -0.025310  -0.003329  -0.004315
     3  H    0.000062   0.000023  -0.000033  -0.025330   0.004949  -0.004324
     4  C    0.003017  -0.000996   0.001287   0.002579   0.001842  -0.000093
     5  H   -0.000004  -0.000110   0.000444   0.000204  -0.001068   0.000017
     6  H    0.000171   0.000591  -0.001632   0.000034   0.000143   0.000011
     7  C    0.003055   0.001368  -0.001052   0.002616  -0.000783  -0.000093
     8  H    0.000204  -0.001665   0.000609   0.000035  -0.000057   0.000011
     9  H   -0.000007   0.000443  -0.000112   0.000206   0.000169   0.000018
    10  C    0.244974  -0.039016  -0.039371   0.000643   0.000077  -0.000140
    11  H   -0.022906   0.008645  -0.009729   0.000089  -0.000004   0.000000
    12  H   -0.022899  -0.009778   0.008615   0.000088  -0.000000   0.000000
    13  C    4.962784   0.344190   0.344236  -0.000178   0.000004   0.000001
    14  H    0.344190   0.691406  -0.070527   0.000015  -0.000001   0.000000
    15  H    0.344236  -0.070527   0.691614   0.000015  -0.000001   0.000000
    16  C   -0.000178   0.000015   0.000015   5.114168   0.373665   0.364439
    17  H    0.000004  -0.000001  -0.000001   0.373665   0.562360  -0.019858
    18  H    0.000001   0.000000   0.000000   0.364439  -0.019858   0.525329
    19  H    0.000004  -0.000001  -0.000001   0.373676  -0.026907  -0.019876
    20  C   -0.001925  -0.000978   0.000191  -0.001664   0.000081  -0.000016
    21  H   -0.000016  -0.000024   0.000001  -0.000020   0.000003  -0.000002
    22  H    0.000167  -0.000030   0.000004  -0.000172  -0.000045  -0.000004
    23  H   -0.000797   0.001459  -0.000116   0.000060  -0.000001   0.000003
    24  C   -0.001921   0.000185  -0.000942  -0.001611  -0.000236  -0.000016
    25  H    0.000167   0.000004  -0.000029  -0.000162   0.001270  -0.000004
    26  H   -0.000017   0.000001  -0.000023  -0.000020  -0.000010  -0.000002
    27  H   -0.000794  -0.000109   0.001396   0.000057  -0.000044   0.000003
    28  C   -0.063908  -0.005342  -0.005470  -0.000000   0.000000   0.000000
    29  H   -0.006488   0.017673  -0.006880   0.000000   0.000000   0.000000
    30  H   -0.006403  -0.006928   0.017707   0.000000  -0.000000   0.000000
    31  C    0.001006   0.000365   0.000376   0.000000  -0.000000  -0.000000
    32  H    0.000689   0.000121  -0.000191   0.000000   0.000000   0.000000
    33  H    0.000696  -0.000188   0.000119   0.000000  -0.000000   0.000000
    34  C   -0.000002   0.000005   0.000004   0.000000  -0.000000   0.000000
    35  H    0.000009  -0.000003   0.000004  -0.000000   0.000000   0.000000
    36  H    0.000009   0.000004  -0.000003  -0.000000  -0.000000   0.000000
    37  C   -0.000000   0.000000   0.000000  -0.000000  -0.000000   0.000000
    38  H    0.000001  -0.000000   0.000000   0.000000   0.000000   0.000000
    39  H    0.000000  -0.000000  -0.000000   0.000000  -0.000000   0.000000
    40  H    0.000001   0.000000  -0.000000   0.000000  -0.000000   0.000000
    41  P   -0.046587   0.009462   0.009888  -0.051230  -0.002473   0.005224
    42  O    0.329505  -0.048241  -0.048309   0.000000   0.000000  -0.000000
    43  O    0.000130  -0.000035  -0.000036   0.000000  -0.000000   0.000000
              19         20         21         22         23         24
     1  C   -0.036722   0.002185  -0.000106   0.001766  -0.000742   0.002111
     2  H    0.004945   0.000012   0.000011   0.000132  -0.000051  -0.000135
     3  H   -0.003323  -0.000143   0.000013  -0.001032   0.000210   0.000012
     4  C   -0.000756   0.001670  -0.000122   0.000078   0.000082   0.256649
     5  H    0.000166  -0.000001  -0.000001  -0.000001  -0.000003  -0.024965
     6  H   -0.000057   0.000004  -0.000001   0.000003  -0.000008  -0.024363
     7  C    0.001882   0.256572  -0.025170  -0.037365  -0.035524   0.001675
     8  H    0.000146  -0.024315  -0.004364   0.005003  -0.003462   0.000002
     9  H   -0.001112  -0.024992  -0.004324  -0.003248   0.004826   0.000000
    10  C    0.000076   0.003465  -0.000017  -0.001473   0.003880   0.003487
    11  H   -0.000001  -0.000088   0.000009  -0.000053   0.000113  -0.000122
    12  H   -0.000004  -0.000101   0.000002   0.000290  -0.001404  -0.000086
    13  C    0.000004  -0.001925  -0.000016   0.000167  -0.000797  -0.001921
    14  H   -0.000001  -0.000978  -0.000024  -0.000030   0.001459   0.000185
    15  H   -0.000001   0.000191   0.000001   0.000004  -0.000116  -0.000942
    16  C    0.373676  -0.001664  -0.000020  -0.000172   0.000060  -0.001611
    17  H   -0.026907   0.000081   0.000003  -0.000045  -0.000001  -0.000236
    18  H   -0.019876  -0.000016  -0.000002  -0.000004   0.000003  -0.000016
    19  H    0.562447  -0.000249  -0.000010   0.001304  -0.000045   0.000077
    20  C   -0.000249   5.110469   0.364057   0.373826   0.374211  -0.000144
    21  H   -0.000010   0.364057   0.526550  -0.020114  -0.019738   0.000003
    22  H    0.001304   0.373826  -0.020114   0.562598  -0.026750   0.000000
    23  H   -0.000045   0.374211  -0.019738  -0.026750   0.558507   0.000002
    24  C    0.000077  -0.000144   0.000003   0.000000   0.000002   5.110433
    25  H   -0.000044   0.000000   0.000000  -0.000001  -0.000001   0.373829
    26  H    0.000003   0.000003  -0.000000   0.000000   0.000000   0.364032
    27  H   -0.000000   0.000002   0.000000  -0.000001  -0.000001   0.374279
    28  C    0.000000   0.000001   0.000000   0.000000  -0.000006   0.000001
    29  H   -0.000000  -0.000015  -0.000001   0.000000  -0.000002   0.000002
    30  H    0.000000   0.000002  -0.000000   0.000000  -0.000004  -0.000014
    31  C   -0.000000  -0.000001   0.000000   0.000000   0.000000  -0.000001
    32  H   -0.000000  -0.000000  -0.000000   0.000000   0.000000   0.000000
    33  H    0.000000   0.000000  -0.000000   0.000000  -0.000002  -0.000000
    34  C   -0.000000   0.000000  -0.000000   0.000000  -0.000000   0.000000
    35  H   -0.000000  -0.000000  -0.000000   0.000000   0.000000  -0.000000
    36  H    0.000000  -0.000000   0.000000  -0.000000  -0.000000  -0.000000
    37  C   -0.000000  -0.000000   0.000000   0.000000  -0.000000  -0.000000
    38  H   -0.000000  -0.000000  -0.000000   0.000000   0.000000   0.000000
    39  H   -0.000000   0.000000  -0.000000   0.000000   0.000000   0.000000
    40  H    0.000000   0.000000   0.000000  -0.000000  -0.000000  -0.000000
    41  P   -0.002586  -0.049351   0.005327  -0.001789  -0.004308  -0.049330
    42  O    0.000000   0.000042   0.000000   0.000001  -0.000097   0.000039
    43  O   -0.000000   0.000000  -0.000000   0.000000  -0.000000   0.000000
              25         26         27         28         29         30
     1  C    0.001736  -0.000105  -0.000722  -0.000001   0.000001   0.000001
     2  H   -0.001006   0.000012   0.000205   0.000000  -0.000000   0.000000
     3  H    0.000131   0.000011  -0.000051   0.000000   0.000000  -0.000000
     4  C   -0.037418  -0.025171  -0.035469  -0.000004  -0.000010  -0.000003
     5  H   -0.003238  -0.004331   0.004818  -0.000001  -0.000000   0.000002
     6  H    0.005010  -0.004360  -0.003463  -0.000009   0.000011   0.000019
     7  C    0.000079  -0.000122   0.000081  -0.000004  -0.000002  -0.000011
     8  H    0.000003  -0.000001  -0.000008  -0.000008   0.000018   0.000012
     9  H   -0.000001  -0.000001  -0.000003  -0.000001   0.000001  -0.000000
    10  C   -0.001490  -0.000015   0.003875   0.004214   0.000337   0.000352
    11  H    0.000293   0.000002  -0.001390  -0.000006   0.000306  -0.000419
    12  H   -0.000053   0.000009   0.000110  -0.000001  -0.000419   0.000303
    13  C    0.000167  -0.000017  -0.000794  -0.063908  -0.006488  -0.006403
    14  H    0.000004   0.000001  -0.000109  -0.005342   0.017673  -0.006928
    15  H   -0.000029  -0.000023   0.001396  -0.005470  -0.006880   0.017707
    16  C   -0.000162  -0.000020   0.000057  -0.000000   0.000000   0.000000
    17  H    0.001270  -0.000010  -0.000044   0.000000   0.000000  -0.000000
    18  H   -0.000004  -0.000002   0.000003   0.000000   0.000000   0.000000
    19  H   -0.000044   0.000003  -0.000000   0.000000  -0.000000   0.000000
    20  C    0.000000   0.000003   0.000002   0.000001  -0.000015   0.000002
    21  H    0.000000  -0.000000   0.000000   0.000000  -0.000001  -0.000000
    22  H   -0.000001   0.000000  -0.000001   0.000000   0.000000   0.000000
    23  H   -0.000001   0.000000  -0.000001  -0.000006  -0.000002  -0.000004
    24  C    0.373829   0.364032   0.374279   0.000001   0.000002  -0.000014
    25  H    0.562578  -0.020111  -0.026740   0.000000   0.000000   0.000000
    26  H   -0.020111   0.526593  -0.019753   0.000000  -0.000000  -0.000001
    27  H   -0.026740  -0.019753   0.558447  -0.000005  -0.000004  -0.000005
    28  C    0.000000   0.000000  -0.000005   4.981167   0.336325   0.336089
    29  H    0.000000  -0.000000  -0.000004   0.336325   0.678774  -0.061067
    30  H    0.000000  -0.000001  -0.000005   0.336089  -0.061067   0.679397
    31  C    0.000000   0.000000   0.000000   0.318859  -0.027680  -0.027829
    32  H    0.000000  -0.000000  -0.000002  -0.032736   0.013204  -0.015903
    33  H    0.000000  -0.000000   0.000000  -0.032696  -0.015857   0.013208
    34  C    0.000000  -0.000000  -0.000000   0.002370   0.000319   0.000318
    35  H   -0.000000   0.000000  -0.000000   0.000716   0.000293  -0.000410
    36  H    0.000000  -0.000000   0.000000   0.000718  -0.000409   0.000294
    37  C    0.000000   0.000000  -0.000000  -0.000186  -0.000033  -0.000033
    38  H   -0.000000   0.000000  -0.000000   0.000019   0.000130  -0.000045
    39  H    0.000000  -0.000000   0.000000  -0.000007   0.000005   0.000005
    40  H    0.000000  -0.000000   0.000000   0.000020  -0.000045   0.000130
    41  P   -0.001729   0.005331  -0.004399  -0.001495   0.000384   0.000400
    42  O    0.000001   0.000000  -0.000089   0.265669  -0.041640  -0.041692
    43  O    0.000000  -0.000000  -0.000000  -0.047726   0.010570   0.010580
              31         32         33         34         35         36
     1  C   -0.000000   0.000000   0.000000   0.000000   0.000000   0.000000
     2  H    0.000000  -0.000000   0.000000  -0.000000   0.000000   0.000000
     3  H    0.000000   0.000000  -0.000000  -0.000000   0.000000   0.000000
     4  C    0.000001  -0.000000  -0.000000  -0.000000   0.000000   0.000000
     5  H   -0.000000  -0.000000   0.000000   0.000000   0.000000   0.000000
     6  H   -0.000000   0.000000   0.000000   0.000000  -0.000000   0.000000
     7  C    0.000001  -0.000000  -0.000000  -0.000000   0.000000   0.000000
     8  H   -0.000000   0.000000   0.000000   0.000000   0.000000  -0.000000
     9  H   -0.000000   0.000000  -0.000000   0.000000   0.000000   0.000000
    10  C   -0.000328   0.000068   0.000072   0.000000  -0.000000  -0.000000
    11  H   -0.000034   0.000113  -0.000038   0.000000  -0.000000   0.000000
    12  H   -0.000033  -0.000038   0.000110   0.000000   0.000000  -0.000000
    13  C    0.001006   0.000689   0.000696  -0.000002   0.000009   0.000009
    14  H    0.000365   0.000121  -0.000188   0.000005  -0.000003   0.000004
    15  H    0.000376  -0.000191   0.000119   0.000004   0.000004  -0.000003
    16  C    0.000000   0.000000   0.000000   0.000000  -0.000000  -0.000000
    17  H   -0.000000   0.000000  -0.000000  -0.000000   0.000000  -0.000000
    18  H   -0.000000   0.000000   0.000000   0.000000   0.000000   0.000000
    19  H   -0.000000  -0.000000   0.000000  -0.000000  -0.000000   0.000000
    20  C   -0.000001  -0.000000   0.000000   0.000000  -0.000000  -0.000000
    21  H    0.000000  -0.000000  -0.000000  -0.000000  -0.000000   0.000000
    22  H    0.000000   0.000000   0.000000   0.000000   0.000000  -0.000000
    23  H    0.000000   0.000000  -0.000002  -0.000000   0.000000  -0.000000
    24  C   -0.000001   0.000000  -0.000000   0.000000  -0.000000  -0.000000
    25  H    0.000000   0.000000   0.000000   0.000000  -0.000000   0.000000
    26  H    0.000000  -0.000000  -0.000000  -0.000000   0.000000  -0.000000
    27  H    0.000000  -0.000002   0.000000  -0.000000  -0.000000   0.000000
    28  C    0.318859  -0.032736  -0.032696   0.002370   0.000716   0.000718
    29  H   -0.027680   0.013204  -0.015857   0.000319   0.000293  -0.000409
    30  H   -0.027829  -0.015903   0.013208   0.000318  -0.000410   0.000294
    31  C    4.884188   0.339584   0.339642  -0.051625  -0.010526  -0.010467
    32  H    0.339584   0.709725  -0.071041  -0.007531   0.020270  -0.007863
    33  H    0.339642  -0.071041   0.709394  -0.007548  -0.007832   0.020244
    34  C   -0.051625  -0.007531  -0.007548   4.875820   0.354620   0.354574
    35  H   -0.010526   0.020270  -0.007832   0.354620   0.707683  -0.073183
    36  H   -0.010467  -0.007863   0.020244   0.354574  -0.073183   0.707729
    37  C    0.004354   0.000240   0.000239   0.310198  -0.032347  -0.032364
    38  H   -0.000112   0.000300  -0.000433  -0.033282   0.009473  -0.010746
    39  H   -0.000406   0.000068   0.000068  -0.032346  -0.000070  -0.000072
    40  H   -0.000114  -0.000433   0.000300  -0.033278  -0.010742   0.009476
    41  P   -0.000010   0.000021   0.000022   0.000000  -0.000000  -0.000000
    42  O   -0.043017   0.008350   0.008350  -0.000064   0.000001   0.000001
    43  O    0.312910  -0.047318  -0.047276   0.305474  -0.048304  -0.048301
              37         38         39         40         41         42
     1  C    0.000000   0.000000   0.000000   0.000000   0.283466  -0.000011
     2  H   -0.000000  -0.000000  -0.000000   0.000000  -0.020322  -0.000010
     3  H   -0.000000   0.000000  -0.000000  -0.000000  -0.020349  -0.000010
     4  C    0.000000  -0.000000  -0.000000   0.000000   0.278316  -0.000027
     5  H    0.000000  -0.000000   0.000000   0.000000  -0.020702  -0.000002
     6  H    0.000000  -0.000000   0.000000   0.000000  -0.019742  -0.000045
     7  C    0.000000   0.000000  -0.000000  -0.000000   0.278203  -0.000030
     8  H    0.000000   0.000000   0.000000  -0.000000  -0.019724  -0.000044
     9  H    0.000000   0.000000   0.000000  -0.000000  -0.020721  -0.000002
    10  C    0.000000  -0.000000  -0.000000  -0.000000   0.174956  -0.037174
    11  H    0.000000  -0.000000  -0.000000   0.000000  -0.011879   0.007506
    12  H    0.000000   0.000000  -0.000000  -0.000000  -0.011860   0.007425
    13  C   -0.000000   0.000001   0.000000   0.000001  -0.046587   0.329505
    14  H    0.000000  -0.000000  -0.000000   0.000000   0.009462  -0.048241
    15  H    0.000000   0.000000  -0.000000  -0.000000   0.009888  -0.048309
    16  C   -0.000000   0.000000   0.000000   0.000000  -0.051230   0.000000
    17  H   -0.000000   0.000000  -0.000000  -0.000000  -0.002473   0.000000
    18  H    0.000000   0.000000   0.000000   0.000000   0.005224  -0.000000
    19  H   -0.000000  -0.000000  -0.000000   0.000000  -0.002586   0.000000
    20  C   -0.000000  -0.000000   0.000000   0.000000  -0.049351   0.000042
    21  H    0.000000  -0.000000  -0.000000   0.000000   0.005327   0.000000
    22  H    0.000000   0.000000   0.000000  -0.000000  -0.001789   0.000001
    23  H   -0.000000   0.000000   0.000000  -0.000000  -0.004308  -0.000097
    24  C   -0.000000   0.000000   0.000000  -0.000000  -0.049330   0.000039
    25  H    0.000000  -0.000000   0.000000   0.000000  -0.001729   0.000001
    26  H    0.000000   0.000000  -0.000000  -0.000000   0.005331   0.000000
    27  H   -0.000000  -0.000000   0.000000   0.000000  -0.004399  -0.000089
    28  C   -0.000186   0.000019  -0.000007   0.000020  -0.001495   0.265669
    29  H   -0.000033   0.000130   0.000005  -0.000045   0.000384  -0.041640
    30  H   -0.000033  -0.000045   0.000005   0.000130   0.000400  -0.041692
    31  C    0.004354  -0.000112  -0.000406  -0.000114  -0.000010  -0.043017
    32  H    0.000240   0.000300   0.000068  -0.000433   0.000021   0.008350
    33  H    0.000239  -0.000433   0.000068   0.000300   0.000022   0.008350
    34  C    0.310198  -0.033282  -0.032346  -0.033278   0.000000  -0.000064
    35  H   -0.032347   0.009473  -0.000070  -0.010742  -0.000000   0.000001
    36  H   -0.032364  -0.010746  -0.000072   0.009476  -0.000000   0.000001
    37  C    5.062082   0.367640   0.352939   0.367614   0.000000   0.000002
    38  H    0.367640   0.585715  -0.022725  -0.027847   0.000000   0.000001
    39  H    0.352939  -0.022725   0.597323  -0.022729   0.000000   0.000000
    40  H    0.367614  -0.027847  -0.022729   0.585768   0.000000   0.000001
    41  P    0.000000   0.000000   0.000000   0.000000  13.932481   0.002649
    42  O    0.000002   0.000001   0.000000   0.000001   0.002649   7.892743
    43  O   -0.049000   0.004132   0.003547   0.004131   0.000000   0.001321
              43
     1  C    0.000000
     2  H   -0.000000
     3  H   -0.000000
     4  C   -0.000000
     5  H    0.000000
     6  H    0.000000
     7  C   -0.000000
     8  H    0.000000
     9  H    0.000000
    10  C    0.000004
    11  H    0.000001
    12  H    0.000001
    13  C    0.000130
    14  H   -0.000035
    15  H   -0.000036
    16  C    0.000000
    17  H   -0.000000
    18  H    0.000000
    19  H   -0.000000
    20  C    0.000000
    21  H   -0.000000
    22  H    0.000000
    23  H   -0.000000
    24  C    0.000000
    25  H    0.000000
    26  H   -0.000000
    27  H   -0.000000
    28  C   -0.047726
    29  H    0.010570
    30  H    0.010580
    31  C    0.312910
    32  H   -0.047318
    33  H   -0.047276
    34  C    0.305474
    35  H   -0.048304
    36  H   -0.048301
    37  C   -0.049000
    38  H    0.004132
    39  H    0.003547
    40  H    0.004131
    41  P    0.000000
    42  O    0.001321
    43  O    7.912350
 Mulliken charges:
               1
     1  C   -0.316947
     2  H    0.189803
     3  H    0.189708
     4  C   -0.319616
     5  H    0.189758
     6  H    0.187627
     7  C   -0.320035
     8  H    0.187793
     9  H    0.189731
    10  C   -0.295678
    11  H    0.193242
    12  H    0.193297
    13  C   -0.060661
    14  H    0.108003
    15  H    0.107874
    16  C   -0.385000
    17  H    0.147041
    18  H    0.178739
    19  H    0.146967
    20  C   -0.382811
    21  H    0.178053
    22  H    0.146904
    23  H    0.149710
    24  C   -0.382936
    25  H    0.146924
    26  H    0.178044
    27  H    0.149779
    28  C   -0.056558
    29  H    0.102195
    30  H    0.101949
    31  C   -0.029102
    32  H    0.090300
    33  H    0.090446
    34  C   -0.038027
    35  H    0.090349
    36  H    0.090357
    37  C   -0.351346
    38  H    0.127780
    39  H    0.124402
    40  H    0.127748
    41  P    0.374455
    42  O   -0.263105
    43  O   -0.277158
 Sum of Mulliken charges =   1.00000
 Mulliken charges with hydrogens summed into heavy atoms:
               1
     1  C    0.062565
     4  C    0.057768
     7  C    0.057489
    10  C    0.090861
    13  C    0.155217
    16  C    0.087748
    20  C    0.091857
    24  C    0.091810
    28  C    0.147586
    31  C    0.151644
    34  C    0.142679
    37  C    0.028584
    41  P    0.374455
    42  O   -0.263105
    43  O   -0.277158
 Electronic spatial extent (au):  <R**2>=          10047.7840
 Charge=              1.0000 electrons
 Dipole moment (field-independent basis, Debye):
    X=            -14.4840    Y=              0.5659    Z=             -0.6237  Tot=             14.5085
 Quadrupole moment (field-independent basis, Debye-Ang):
   XX=            -36.8448   YY=            -86.6809   ZZ=            -82.7816
   XY=              6.0727   XZ=            -11.4965   YZ=             -3.5345
 Traceless Quadrupole moment (field-independent basis, Debye-Ang):
   XX=             31.9243   YY=            -17.9118   ZZ=            -14.0125
   XY=              6.0727   XZ=            -11.4965   YZ=             -3.5345
 Octapole moment (field-independent basis, Debye-Ang**2):
  XXX=            115.6910  YYY=           -251.9676  ZZZ=            358.2457  XYY=            116.5529
  XXY=            -79.4075  XXZ=            134.9616  XZZ=            159.3422  YZZ=            -37.8377
  YYZ=            118.9356  XYZ=            -38.2073
 Hexadecapole moment (field-independent basis, Debye-Ang**3):
 XXXX=          -5167.1488 YYYY=          -2085.8777 ZZZZ=          -3916.3923 XXXY=           -635.3869
 XXXZ=           1107.4243 YYYX=           -642.3044 YYYZ=            916.4748 ZZZX=            954.0807
 ZZZY=            738.1763 XXYY=          -1325.9855 XXZZ=          -1607.8787 YYZZ=           -926.9989
 XXYZ=            255.2520 YYXZ=            313.8889 ZZXY=            -71.1826
 N-N= 1.184361354333D+03 E-N=-4.611965863465D+03  KE= 9.624013194682D+02
 Breneman (CHELPG) radii used.
 Generate Potential Derived Charges using the Breneman model, NDens= 1.
 Grid spacing= 0.300 Box extension= 2.800
 NStep X,Y,Z=   60     46     49   Total possible points=      135240
 Number of Points to Fit=   23355

 **********************************************************************

          Electrostatic Properties Using The MP2 Density

 **********************************************************************

       Atomic Center    1 is at  -5.055180  0.145553 -0.178352
       Atomic Center    2 is at  -5.279619  1.211701 -0.271455
       Atomic Center    3 is at  -5.280129 -0.305193 -1.148862
       Atomic Center    4 is at  -2.761225  0.819191  1.611905
       Atomic Center    5 is at  -3.259069  0.275250  2.419568
       Atomic Center    6 is at  -1.688642  0.643633  1.733388
       Atomic Center    7 is at  -2.763554 -1.743266  0.138597
       Atomic Center    8 is at  -1.690347 -1.761412  0.348194
       Atomic Center    9 is at  -3.259366 -2.166164  1.016875
       Atomic Center   10 is at  -2.452583  0.822325 -1.358454
       Atomic Center   11 is at  -2.806200  1.856289 -1.392198
       Atomic Center   12 is at  -2.809043  0.333855 -2.269256
       Atomic Center   13 is at  -0.924360  0.801103 -1.325670
       Atomic Center   14 is at  -0.548111 -0.233225 -1.313637
       Atomic Center   15 is at  -0.545691  1.302385 -0.421839
       Atomic Center   16 is at  -5.880378 -0.501343  0.940473
       Atomic Center   17 is at  -5.686458 -0.038776  1.910016
       Atomic Center   18 is at  -6.942269 -0.376726  0.725186
       Atomic Center   19 is at  -5.686566 -1.572421  1.023194
       Atomic Center   20 is at  -3.095260 -2.544067 -1.126613
       Atomic Center   21 is at  -2.776477 -3.578651 -0.994518
       Atomic Center   22 is at  -4.167303 -2.555009 -1.332239
       Atomic Center   23 is at  -2.578843 -2.150603 -2.004060
       Atomic Center   24 is at  -3.087976  2.316609  1.666107
       Atomic Center   25 is at  -4.159310  2.503253  1.570930
       Atomic Center   26 is at  -2.768838  2.722495  2.626757
       Atomic Center   27 is at  -2.568910  2.874757  0.884795
       Atomic Center   28 is at   0.924613  1.538120 -2.600962
       Atomic Center   29 is at   1.349207  0.527455 -2.638215
       Atomic Center   30 is at   1.353178  2.064651 -1.739430
       Atomic Center   31 is at   1.251998  2.285433 -3.880310
       Atomic Center   32 is at   0.819765  3.295792 -3.844245
       Atomic Center   33 is at   0.814691  1.761058 -4.742131
       Atomic Center   34 is at   3.129944  3.012046 -5.130120
       Atomic Center   35 is at   2.747139  4.042452 -5.130025
       Atomic Center   36 is at   2.741338  2.511389 -6.028224
       Atomic Center   37 is at   4.644379  2.997335 -5.114860
       Atomic Center   38 is at   5.019980  1.971994 -5.121403
       Atomic Center   39 is at   5.033525  3.513055 -5.996132
       Atomic Center   40 is at   5.025790  3.500892 -4.224129
       Atomic Center   41 is at  -3.253292  0.009904  0.055030
       Atomic Center   42 is at  -0.499405  1.471228 -2.480253
       Atomic Center   43 is at   2.656304  2.331865 -3.967544
   23355 points will be used for fitting atomic charges
 Fitting point charges to electrostatic potential
 The dipole moment will be constrained to the correct value
 Charges from ESP fit, RMS=   0.00212 RRMS=   0.02148:
 ESP charges:
               1
     1  C    0.099008
     2  H    0.048022
     3  H    0.050398
     4  C    0.091134
     5  H    0.047775
     6  H    0.033664
     7  C    0.095755
     8  H    0.031563
     9  H    0.045767
    10  C   -0.121570
    11  H    0.094987
    12  H    0.094335
    13  C    0.338985
    14  H   -0.002429
    15  H   -0.000769
    16  C   -0.223193
    17  H    0.086861
    18  H    0.096619
    19  H    0.085755
    20  C   -0.197040
    21  H    0.093603
    22  H    0.074138
    23  H    0.088014
    24  C   -0.212306
    25  H    0.079291
    26  H    0.098198
    27  H    0.092161
    28  C    0.210577
    29  H    0.012523
    30  H    0.012064
    31  C    0.280130
    32  H   -0.008286
    33  H   -0.006933
    34  C    0.385706
    35  H   -0.033113
    36  H   -0.033731
    37  C   -0.249211
    38  H    0.078597
    39  H    0.059947
    40  H    0.078759
    41  P    0.084034
    42  O   -0.488300
    43  O   -0.491490
 Sum of ESP charges =   1.00000
 ESP charges with hydrogens summed into heavy atoms:
               1
     1  C    0.197428
     4  C    0.172573
     7  C    0.173085
    10  C    0.067752
    13  C    0.335787
    16  C    0.046042
    20  C    0.058715
    24  C    0.057344
    28  C    0.235164
    31  C    0.264911
    34  C    0.318861
    37  C   -0.031908
    41  P    0.084034
    42  O   -0.488300
    43  O   -0.491490
 Charge=   1.00000 Dipole=   -14.4840     0.5659    -0.6237 Tot=    14.5085
 -----------------------------------------------------------------

              Electrostatic Properties (Atomic Units)

 -----------------------------------------------------------------
    Center     Electric         -------- Electric Field --------
               Potential          X             Y             Z
 -----------------------------------------------------------------
    1 Atom    -14.572977
    2 Atom     -0.929119
    3 Atom     -0.929135
    4 Atom    -14.572634
    5 Atom     -0.928778
    6 Atom     -0.928598
    7 Atom    -14.572628
    8 Atom     -0.928577
    9 Atom     -0.928767
   10 Atom    -14.580594
   11 Atom     -0.930260
   12 Atom     -0.930284
   13 Atom    -14.553152
   14 Atom     -0.971741
   15 Atom     -0.971725
   16 Atom    -14.606305
   17 Atom     -0.964943
   18 Atom     -0.967359
   19 Atom     -0.964940
   20 Atom    -14.606797
   21 Atom     -0.967849
   22 Atom     -0.965376
   23 Atom     -0.965804
   24 Atom    -14.606821
   25 Atom     -0.965387
   26 Atom     -0.967863
   27 Atom     -0.965829
   28 Atom    -14.603889
   29 Atom     -1.013953
   30 Atom     -1.013905
   31 Atom    -14.619205
   32 Atom     -1.031381
   33 Atom     -1.031397
   34 Atom    -14.634118
   35 Atom     -1.049054
   36 Atom     -1.049052
   37 Atom    -14.702129
   38 Atom     -1.054945
   39 Atom     -1.048486
   40 Atom     -1.054940
   41 Atom    -53.914985
   42 Atom    -22.208162
   43 Atom    -22.255770
 -----------------------------------------------------------------
 1\1\GINC-CX1-100-2-3\SP\RMP2-Full\CC-pVTZ\C12H28O2P1\FDP18\23-Mar-2021
 \0\\# RMP2=(semidirect,full)/cc-pVTZ int=ultrafine symmetry=none scf=c
 onver=11 Density=current pop=(minimal,CHELPG,Dipole)\\Title Card Requi
 red\\1,1\C,0,-5.05518,0.145553,-0.178352\H,0,-5.279619,1.211701,-0.271
 455\H,0,-5.280129,-0.305193,-1.148862\C,0,-2.761225,0.819191,1.611905\
 H,0,-3.259069,0.27525,2.419568\H,0,-1.688642,0.643633,1.733388\C,0,-2.
 763554,-1.743266,0.138597\H,0,-1.690347,-1.761412,0.348194\H,0,-3.2593
 66,-2.166164,1.016875\C,0,-2.452583,0.822325,-1.358454\H,0,-2.8062,1.8
 56289,-1.392198\H,0,-2.809043,0.333855,-2.269256\C,0,-0.92436,0.801103
 ,-1.32567\H,0,-0.548111,-0.233225,-1.313637\H,0,-0.545691,1.302385,-0.
 421839\C,0,-5.880378,-0.501343,0.940473\H,0,-5.686458,-0.038776,1.9100
 16\H,0,-6.942269,-0.376726,0.725186\H,0,-5.686566,-1.572421,1.023194\C
 ,0,-3.09526,-2.544067,-1.126613\H,0,-2.776477,-3.578651,-0.994518\H,0,
 -4.167303,-2.555009,-1.332239\H,0,-2.578843,-2.150603,-2.00406\C,0,-3.
 087976,2.316609,1.666107\H,0,-4.15931,2.503253,1.57093\H,0,-2.768838,2
 .722495,2.626757\H,0,-2.56891,2.874757,0.884795\C,0,0.924613,1.53812,-
 2.600962\H,0,1.349207,0.527455,-2.638215\H,0,1.353178,2.064651,-1.7394
 3\C,0,1.251998,2.285433,-3.88031\H,0,0.819765,3.295792,-3.844245\H,0,0
 .814691,1.761058,-4.742131\C,0,3.129944,3.012046,-5.13012\H,0,2.747139
 ,4.042452,-5.130025\H,0,2.741338,2.511389,-6.028224\C,0,4.644379,2.997
 335,-5.11486\H,0,5.01998,1.971994,-5.121403\H,0,5.033525,3.513055,-5.9
 96132\H,0,5.02579,3.500892,-4.224129\P,0,-3.253292,0.009904,0.05503\O,
 0,-0.499405,1.471228,-2.480253\O,0,2.656304,2.331865,-3.967544\\Versio
 n=ES64L-G09RevE.01\HF=-961.22932\MP2=-964.215788\RMSD=6.413e-12\Dipole
 =-3.2813623,-1.3993565,2.427076\Quadrupole=23.7349553,-13.3169883,-10.
 4179669,4.5149406,-8.5474033,-2.6278147\PG=Unknown\\@


 WE HAVE SEEN THAT MAN ON THE AVERAGE DOES NOT LIVE ABOVE
 TWO-AND-TWENTY YEARS.  DURING THESE TWO AND TWENTY
 YEARS HE IS LIABLE TO TWO AND TWENTY THOUSAND EVILS,
 MANY OF WHICH ARE INCURABLE.  YET EVEN IN THIS DREADFUL STATE
 MEN STILL STRUT AND POSE ON THE STAGE OF LIFE.
 THEY MAKE LOVE AT THE RISK OF DESTRUCTION,
 INTRIGUE, CARRY ON WAR, AND FORM PROJECTS, JUST AS IF THEY
 WERE TO LIVE IN LUXURY AND HAPPINESS FOR A THOUSAND
 AGES.

                                              -- VOLTAIRE
 Job cpu time:       5 days  5 hours 53 minutes 25.3 seconds.
 File lengths (MBytes):  RWF= 511644 Int=      0 D2E=      0 Chk=     56 Scr=      1
 Normal termination of Gaussian 09 at Tue Mar 23 15:00:34 2021.
