 Entering Gaussian System, Link 0=g09
 Initial command:
 /apps/gaussian/g09_e01/g09/l1.exe "/rds/general/user/fdp18/home/gaussian/padua/forcefield_phosphonium/Gau-764704.inp" -scrdir="/rds/general/user/fdp18/home/gaussian/padua/forcefield_phosphonium/"
 Entering Link 1 = /apps/gaussian/g09_e01/g09/l1.exe PID=    764705.
  
 Copyright (c) 1988,1990,1992,1993,1995,1998,2003,2009,2015,
            Gaussian, Inc.  All Rights Reserved.
  
 This is part of the Gaussian(R) 09 program.  It is based on
 the Gaussian(R) 03 system (copyright 2003, Gaussian, Inc.),
 the Gaussian(R) 98 system (copyright 1998, Gaussian, Inc.),
 the Gaussian(R) 94 system (copyright 1995, Gaussian, Inc.),
 the Gaussian 92(TM) system (copyright 1992, Gaussian, Inc.),
 the Gaussian 90(TM) system (copyright 1990, Gaussian, Inc.),
 the Gaussian 88(TM) system (copyright 1988, Gaussian, Inc.),
 the Gaussian 86(TM) system (copyright 1986, Carnegie Mellon
 University), and the Gaussian 82(TM) system (copyright 1983,
 Carnegie Mellon University). Gaussian is a federally registered
 trademark of Gaussian, Inc.
  
 This software contains proprietary and confidential information,
 including trade secrets, belonging to Gaussian, Inc.
  
 This software is provided under written license and may be
 used, copied, transmitted, or stored only in accord with that
 written license.
  
 The following legend is applicable only to US Government
 contracts under FAR:
  
                    RESTRICTED RIGHTS LEGEND
  
 Use, reproduction and disclosure by the US Government is
 subject to restrictions as set forth in subparagraphs (a)
 and (c) of the Commercial Computer Software - Restricted
 Rights clause in FAR 52.227-19.
  
 Gaussian, Inc.
 340 Quinnipiac St., Bldg. 40, Wallingford CT 06492
  
  
 ---------------------------------------------------------------
 Warning -- This program may not be used in any manner that
 competes with the business of Gaussian, Inc. or will provide
 assistance to any competitor of Gaussian, Inc.  The licensee
 of this program is prohibited from giving any competitor of
 Gaussian, Inc. access to this program.  By using this program,
 the user acknowledges that Gaussian, Inc. is engaged in the
 business of creating and licensing software in the field of
 computational chemistry and represents and warrants to the
 licensee that it is not a competitor of Gaussian, Inc. and that
 it will not use this program in any manner prohibited above.
 ---------------------------------------------------------------
  

 Cite this work as:
 Gaussian 09, Revision E.01,
 M. J. Frisch, G. W. Trucks, H. B. Schlegel, G. E. Scuseria, 
 M. A. Robb, J. R. Cheeseman, G. Scalmani, V. Barone, B. Mennucci, 
 G. A. Petersson, H. Nakatsuji, M. Caricato, X. Li, H. P. Hratchian, 
 A. F. Izmaylov, J. Bloino, G. Zheng, J. L. Sonnenberg, M. Hada, 
 M. Ehara, K. Toyota, R. Fukuda, J. Hasegawa, M. Ishida, T. Nakajima, 
 Y. Honda, O. Kitao, H. Nakai, T. Vreven, J. A. Montgomery, Jr., 
 J. E. Peralta, F. Ogliaro, M. Bearpark, J. J. Heyd, E. Brothers, 
 K. N. Kudin, V. N. Staroverov, T. Keith, R. Kobayashi, J. Normand, 
 K. Raghavachari, A. Rendell, J. C. Burant, S. S. Iyengar, J. Tomasi, 
 M. Cossi, N. Rega, J. M. Millam, M. Klene, J. E. Knox, J. B. Cross, 
 V. Bakken, C. Adamo, J. Jaramillo, R. Gomperts, R. E. Stratmann, 
 O. Yazyev, A. J. Austin, R. Cammi, C. Pomelli, J. W. Ochterski, 
 R. L. Martin, K. Morokuma, V. G. Zakrzewski, G. A. Voth, 
 P. Salvador, J. J. Dannenberg, S. Dapprich, A. D. Daniels, 
 O. Farkas, J. B. Foresman, J. V. Ortiz, J. Cioslowski, 
 and D. J. Fox, Gaussian, Inc., Wallingford CT, 2013.
 
 ******************************************
 Gaussian 09:  ES64L-G09RevE.01 30-Nov-2015
                26-Mar-2021 
 ******************************************
 %nprocshared=24
 Will use up to   24 processors via shared memory.
 %mem=60GB
 %chk=P2221.chk
 ----------------------------------------------------------------------
 # opt=(maxcycles=400,verytight) freq EmpiricalDispersion=GD3BJ rb3lyp/
 6-311+g(d,p) int=ultrafine symmetry=none scf=(conver=10) pop=(minimal,
 CHELPG,Dipole)
 ----------------------------------------------------------------------
 1/6=400,7=1,14=-1,18=20,19=15,26=4,38=1/1,3;
 2/9=110,12=2,15=3,17=6,18=5,40=1/2;
 3/5=4,6=6,7=111,11=2,16=1,25=1,30=1,71=1,74=-5,75=-5,116=1,124=41/1,2,3;
 4//1;
 5/5=2,6=10,38=5/2;
 6/7=2,8=2,9=2,10=2,15=24,20=3,28=1/1,2;
 7/30=1/1,2,3,16;
 1/6=400,7=1,14=-1,18=20,19=15,26=4/3(2);
 2/9=110,15=3/2;
 99//99;
 2/9=110,15=3/2;
 3/5=4,6=6,7=111,11=2,16=1,25=1,30=1,71=1,74=-5,75=-5,116=1,124=41/1,2,3;
 4/5=5,16=3,69=1/1;
 5/5=2,6=10,38=5/2;
 7/30=1/1,2,3,16;
 1/6=400,7=1,14=-1,18=20,19=15,26=4/3(-5);
 2/9=110,15=3/2;
 6/7=2,8=2,9=2,10=2,15=24,19=2,20=3,28=1/1,2;
 99/9=1/99;
 -------------------
 Title Card Required
 -------------------
 Symbolic Z-matrix:
 Charge =  1 Multiplicity = 1
 P                    -0.52342   0.93075   2.19521 
 C                    -1.58979  -0.38789   1.52967 
 C                     0.83706   0.15974   3.12973 
 C                    -1.48651   2.03168   3.2794 
 C                     0.15399   1.9104    0.83083 
 H                    -1.87886  -1.01605   2.37693 
 H                    -0.9559   -1.00368   0.88431 
 H                     1.37671  -0.47794   2.4229 
 H                     0.37587  -0.50646   3.86423 
 H                    -2.24706   2.50565   2.65271 
 H                    -0.80944   2.8271    3.60306 
 H                     0.74112   1.26995   0.17026 
 H                     0.79321   2.70248   1.2229 
 H                    -0.65779   2.36417   0.2609 
 C                     1.78201   1.16003   3.8076 
 H                     1.26268   1.77445   4.54521 
 H                     2.56882   0.61528   4.33065 
 H                     2.26629   1.8196    3.08527 
 C                    -2.82306   0.12163   0.77302 
 H                    -3.39507  -0.72918   0.40112 
 H                    -3.48352   0.70432   1.41767 
 H                    -2.55038   0.73359  -0.08869 
 C                    -2.11988   1.31673   4.47939 
 H                    -2.67717   2.03784   5.07833 
 H                    -2.81968   0.53915   4.16743 
 H                    -1.36722   0.8641    5.1277 
 

 GradGradGradGradGradGradGradGradGradGradGradGradGradGradGradGradGradGrad
 Berny optimization.
 Initialization pass.
                           ----------------------------
                           !    Initial Parameters    !
                           ! (Angstroms and Degrees)  !
 --------------------------                            --------------------------
 ! Name  Definition              Value          Derivative Info.                !
 --------------------------------------------------------------------------------
 ! R1    R(1,2)                  1.8218         estimate D2E/DX2                !
 ! R2    R(1,3)                  1.8217         estimate D2E/DX2                !
 ! R3    R(1,4)                  1.8207         estimate D2E/DX2                !
 ! R4    R(1,5)                  1.8111         estimate D2E/DX2                !
 ! R5    R(2,6)                  1.0936         estimate D2E/DX2                !
 ! R6    R(2,7)                  1.0943         estimate D2E/DX2                !
 ! R7    R(2,19)                 1.534          estimate D2E/DX2                !
 ! R8    R(3,8)                  1.0943         estimate D2E/DX2                !
 ! R9    R(3,9)                  1.0936         estimate D2E/DX2                !
 ! R10   R(3,15)                 1.534          estimate D2E/DX2                !
 ! R11   R(4,10)                 1.0935         estimate D2E/DX2                !
 ! R12   R(4,11)                 1.0936         estimate D2E/DX2                !
 ! R13   R(4,23)                 1.5337         estimate D2E/DX2                !
 ! R14   R(5,12)                 1.0914         estimate D2E/DX2                !
 ! R15   R(5,13)                 1.0907         estimate D2E/DX2                !
 ! R16   R(5,14)                 1.0907         estimate D2E/DX2                !
 ! R17   R(15,16)                1.0915         estimate D2E/DX2                !
 ! R18   R(15,17)                1.0906         estimate D2E/DX2                !
 ! R19   R(15,18)                1.0915         estimate D2E/DX2                !
 ! R20   R(19,20)                1.0906         estimate D2E/DX2                !
 ! R21   R(19,21)                1.0915         estimate D2E/DX2                !
 ! R22   R(19,22)                1.0915         estimate D2E/DX2                !
 ! R23   R(23,24)                1.0905         estimate D2E/DX2                !
 ! R24   R(23,25)                1.0916         estimate D2E/DX2                !
 ! R25   R(23,26)                1.0916         estimate D2E/DX2                !
 ! A1    A(2,1,3)              108.554          estimate D2E/DX2                !
 ! A2    A(2,1,4)              110.2177         estimate D2E/DX2                !
 ! A3    A(2,1,5)              109.5876         estimate D2E/DX2                !
 ! A4    A(3,1,4)              110.2107         estimate D2E/DX2                !
 ! A5    A(3,1,5)              109.6362         estimate D2E/DX2                !
 ! A6    A(4,1,5)              108.625          estimate D2E/DX2                !
 ! A7    A(1,2,6)              106.7052         estimate D2E/DX2                !
 ! A8    A(1,2,7)              106.4805         estimate D2E/DX2                !
 ! A9    A(1,2,19)             114.228          estimate D2E/DX2                !
 ! A10   A(6,2,7)              106.6659         estimate D2E/DX2                !
 ! A11   A(6,2,19)             111.1262         estimate D2E/DX2                !
 ! A12   A(7,2,19)             111.2062         estimate D2E/DX2                !
 ! A13   A(1,3,8)              106.4738         estimate D2E/DX2                !
 ! A14   A(1,3,9)              106.7035         estimate D2E/DX2                !
 ! A15   A(1,3,15)             114.2523         estimate D2E/DX2                !
 ! A16   A(8,3,9)              106.6661         estimate D2E/DX2                !
 ! A17   A(8,3,15)             111.2017         estimate D2E/DX2                !
 ! A18   A(9,3,15)             111.1136         estimate D2E/DX2                !
 ! A19   A(1,4,10)             106.7805         estimate D2E/DX2                !
 ! A20   A(1,4,11)             106.7715         estimate D2E/DX2                !
 ! A21   A(1,4,23)             113.7332         estimate D2E/DX2                !
 ! A22   A(10,4,11)            106.5564         estimate D2E/DX2                !
 ! A23   A(10,4,23)            111.2979         estimate D2E/DX2                !
 ! A24   A(11,4,23)            111.2959         estimate D2E/DX2                !
 ! A25   A(1,5,12)             109.8616         estimate D2E/DX2                !
 ! A26   A(1,5,13)             109.9507         estimate D2E/DX2                !
 ! A27   A(1,5,14)             109.8945         estimate D2E/DX2                !
 ! A28   A(12,5,13)            109.1726         estimate D2E/DX2                !
 ! A29   A(12,5,14)            109.1615         estimate D2E/DX2                !
 ! A30   A(13,5,14)            108.7761         estimate D2E/DX2                !
 ! A31   A(3,15,16)            111.8775         estimate D2E/DX2                !
 ! A32   A(3,15,17)            109.308          estimate D2E/DX2                !
 ! A33   A(3,15,18)            112.0196         estimate D2E/DX2                !
 ! A34   A(16,15,17)           107.4786         estimate D2E/DX2                !
 ! A35   A(16,15,18)           108.5532         estimate D2E/DX2                !
 ! A36   A(17,15,18)           107.4052         estimate D2E/DX2                !
 ! A37   A(2,19,20)            109.3146         estimate D2E/DX2                !
 ! A38   A(2,19,21)            111.869          estimate D2E/DX2                !
 ! A39   A(2,19,22)            112.0116         estimate D2E/DX2                !
 ! A40   A(20,19,21)           107.4885         estimate D2E/DX2                !
 ! A41   A(20,19,22)           107.409          estimate D2E/DX2                !
 ! A42   A(21,19,22)           108.5506         estimate D2E/DX2                !
 ! A43   A(4,23,24)            109.4207         estimate D2E/DX2                !
 ! A44   A(4,23,25)            111.9124         estimate D2E/DX2                !
 ! A45   A(4,23,26)            111.9138         estimate D2E/DX2                !
 ! A46   A(24,23,25)           107.4794         estimate D2E/DX2                !
 ! A47   A(24,23,26)           107.4777         estimate D2E/DX2                !
 ! A48   A(25,23,26)           108.4431         estimate D2E/DX2                !
 ! D1    D(3,1,2,6)             53.932          estimate D2E/DX2                !
 ! D2    D(3,1,2,7)            -59.7114         estimate D2E/DX2                !
 ! D3    D(3,1,2,19)           177.1416         estimate D2E/DX2                !
 ! D4    D(4,1,2,6)            -66.8618         estimate D2E/DX2                !
 ! D5    D(4,1,2,7)            179.4948         estimate D2E/DX2                !
 ! D6    D(4,1,2,19)            56.3478         estimate D2E/DX2                !
 ! D7    D(5,1,2,6)            173.6466         estimate D2E/DX2                !
 ! D8    D(5,1,2,7)             60.0032         estimate D2E/DX2                !
 ! D9    D(5,1,2,19)           -63.1438         estimate D2E/DX2                !
 ! D10   D(2,1,3,8)             59.651          estimate D2E/DX2                !
 ! D11   D(2,1,3,9)            -53.9887         estimate D2E/DX2                !
 ! D12   D(2,1,3,15)          -177.1968         estimate D2E/DX2                !
 ! D13   D(4,1,3,8)           -179.5508         estimate D2E/DX2                !
 ! D14   D(4,1,3,9)             66.8095         estimate D2E/DX2                !
 ! D15   D(4,1,3,15)           -56.3986         estimate D2E/DX2                !
 ! D16   D(5,1,3,8)            -60.0331         estimate D2E/DX2                !
 ! D17   D(5,1,3,9)           -173.6728         estimate D2E/DX2                !
 ! D18   D(5,1,3,15)            63.1191         estimate D2E/DX2                !
 ! D19   D(2,1,4,10)           -63.3837         estimate D2E/DX2                !
 ! D20   D(2,1,4,11)          -177.0703         estimate D2E/DX2                !
 ! D21   D(2,1,4,23)            59.7776         estimate D2E/DX2                !
 ! D22   D(3,1,4,10)           176.8202         estimate D2E/DX2                !
 ! D23   D(3,1,4,11)            63.1335         estimate D2E/DX2                !
 ! D24   D(3,1,4,23)           -60.0186         estimate D2E/DX2                !
 ! D25   D(5,1,4,10)            56.6906         estimate D2E/DX2                !
 ! D26   D(5,1,4,11)           -56.9961         estimate D2E/DX2                !
 ! D27   D(5,1,4,23)           179.8518         estimate D2E/DX2                !
 ! D28   D(2,1,5,12)           -59.8646         estimate D2E/DX2                !
 ! D29   D(2,1,5,13)           179.9628         estimate D2E/DX2                !
 ! D30   D(2,1,5,14)            60.259          estimate D2E/DX2                !
 ! D31   D(3,1,5,12)            59.1846         estimate D2E/DX2                !
 ! D32   D(3,1,5,13)           -60.9881         estimate D2E/DX2                !
 ! D33   D(3,1,5,14)           179.3081         estimate D2E/DX2                !
 ! D34   D(4,1,5,12)           179.6704         estimate D2E/DX2                !
 ! D35   D(4,1,5,13)            59.4977         estimate D2E/DX2                !
 ! D36   D(4,1,5,14)           -60.2061         estimate D2E/DX2                !
 ! D37   D(1,2,19,20)          179.3373         estimate D2E/DX2                !
 ! D38   D(1,2,19,21)          -61.7288         estimate D2E/DX2                !
 ! D39   D(1,2,19,22)           60.4134         estimate D2E/DX2                !
 ! D40   D(6,2,19,20)          -59.8787         estimate D2E/DX2                !
 ! D41   D(6,2,19,21)           59.0552         estimate D2E/DX2                !
 ! D42   D(6,2,19,22)         -178.8026         estimate D2E/DX2                !
 ! D43   D(7,2,19,20)           58.7876         estimate D2E/DX2                !
 ! D44   D(7,2,19,21)          177.7215         estimate D2E/DX2                !
 ! D45   D(7,2,19,22)          -60.1363         estimate D2E/DX2                !
 ! D46   D(1,3,15,16)           61.788          estimate D2E/DX2                !
 ! D47   D(1,3,15,17)         -179.2894         estimate D2E/DX2                !
 ! D48   D(1,3,15,18)          -60.3697         estimate D2E/DX2                !
 ! D49   D(8,3,15,16)         -177.657          estimate D2E/DX2                !
 ! D50   D(8,3,15,17)          -58.7343         estimate D2E/DX2                !
 ! D51   D(8,3,15,18)           60.1854         estimate D2E/DX2                !
 ! D52   D(9,3,15,16)          -59.0017         estimate D2E/DX2                !
 ! D53   D(9,3,15,17)           59.921          estimate D2E/DX2                !
 ! D54   D(9,3,15,18)          178.8407         estimate D2E/DX2                !
 ! D55   D(1,4,23,24)          179.9994         estimate D2E/DX2                !
 ! D56   D(1,4,23,25)          -60.9814         estimate D2E/DX2                !
 ! D57   D(1,4,23,26)           60.9815         estimate D2E/DX2                !
 ! D58   D(10,4,23,24)         -59.3439         estimate D2E/DX2                !
 ! D59   D(10,4,23,25)          59.6753         estimate D2E/DX2                !
 ! D60   D(10,4,23,26)        -178.3618         estimate D2E/DX2                !
 ! D61   D(11,4,23,24)          59.356          estimate D2E/DX2                !
 ! D62   D(11,4,23,25)         178.3751         estimate D2E/DX2                !
 ! D63   D(11,4,23,26)         -59.6619         estimate D2E/DX2                !
 --------------------------------------------------------------------------------
 Trust Radius=3.00D-01 FncErr=1.00D-07 GrdErr=1.00D-06
 Number of steps in this run=    156 maximum allowed number of steps=    156.
 GradGradGradGradGradGradGradGradGradGradGradGradGradGradGradGradGradGrad

                          Input orientation:                          
 ---------------------------------------------------------------------
 Center     Atomic      Atomic             Coordinates (Angstroms)
 Number     Number       Type             X           Y           Z
 ---------------------------------------------------------------------
      1         15           0       -0.523424    0.930753    2.195210
      2          6           0       -1.589788   -0.387894    1.529673
      3          6           0        0.837058    0.159742    3.129726
      4          6           0       -1.486507    2.031676    3.279402
      5          6           0        0.153992    1.910397    0.830831
      6          1           0       -1.878856   -1.016049    2.376928
      7          1           0       -0.955899   -1.003678    0.884315
      8          1           0        1.376708   -0.477943    2.422903
      9          1           0        0.375871   -0.506461    3.864232
     10          1           0       -2.247061    2.505651    2.652706
     11          1           0       -0.809441    2.827098    3.603058
     12          1           0        0.741117    1.269951    0.170262
     13          1           0        0.793211    2.702475    1.222897
     14          1           0       -0.657789    2.364170    0.260897
     15          6           0        1.782009    1.160034    3.807602
     16          1           0        1.262684    1.774450    4.545206
     17          1           0        2.568820    0.615283    4.330645
     18          1           0        2.266292    1.819596    3.085268
     19          6           0       -2.823059    0.121632    0.773025
     20          1           0       -3.395069   -0.729181    0.401119
     21          1           0       -3.483519    0.704320    1.417674
     22          1           0       -2.550382    0.733586   -0.088692
     23          6           0       -2.119878    1.316730    4.479392
     24          1           0       -2.677166    2.037837    5.078332
     25          1           0       -2.819676    0.539147    4.167433
     26          1           0       -1.367221    0.864105    5.127697
 ---------------------------------------------------------------------
                    Distance matrix (angstroms):
                    1          2          3          4          5
     1  P    0.000000
     2  C    1.821785   0.000000
     3  C    1.821727   2.957981   0.000000
     4  C    1.820724   2.987732   2.987556   0.000000
     5  C    1.811111   2.968382   2.969223   2.949821   0.000000
     6  H    2.379129   1.093609   3.053748   3.202660   3.884195
     7  H    2.376447   1.094299   3.100018   3.902738   3.118741
     8  H    2.376293   3.099365   1.094287   3.902535   3.119918
     9  H    2.379065   3.054183   1.093627   3.201971   3.884836
    10  H    2.379187   3.172667   3.904180   1.093546   3.072232
    11  H    2.379068   3.904361   3.170140   1.093557   3.074701
    12  H    2.411335   3.166950   3.162309   3.899909   1.091438
    13  H    2.412036   3.914483   3.178586   3.142658   1.090736
    14  H    2.411287   3.170531   3.914620   3.147808   1.090745
    15  C    2.822658   4.353625   1.533959   3.423733   3.474859
    16  H    3.069933   4.680359   2.189068   3.037512   3.878693
    17  H    3.771151   5.113299   2.156090   4.422325   4.444931
    18  H    3.060190   4.707679   2.190845   3.763797   3.090719
    19  C    2.822341   1.533979   4.353383   3.422947   3.473594
    20  H    3.771006   2.156189   5.113353   4.421476   4.443856
    21  H    3.068876   2.188994   4.679217   3.035781   3.876918
    22  H    3.060007   2.190791   4.707681   3.763101   3.089344
    23  C    2.813384   3.447837   3.450172   1.533715   4.339922
    24  H    3.765187   4.433908   4.435546   2.157279   5.106169
    25  H    3.052179   3.054473   3.820011   2.189425   4.675034
    26  H    3.052199   3.816125   3.057263   2.189440   4.676738
                    6          7          8          9         10
     6  H    0.000000
     7  H    1.754964   0.000000
     8  H    3.300055   2.843362   0.000000
     9  H    2.748735   3.301627   1.754970   0.000000
    10  H    3.551620   4.136387   4.699611   4.173774   0.000000
    11  H    4.173346   4.699772   4.134647   3.547646   1.753068
    12  H    4.118184   2.925598   2.921216   4.115151   4.076603
    13  H    4.722198   4.112127   3.448992   4.177092   3.365464
    14  H    4.170668   3.438010   4.109872   4.721546   2.875161
    15  C    4.492671   4.552296   2.182803   2.181201   4.402030
    16  H    4.728381   5.103159   3.096844   2.540220   4.053951
    17  H    5.124459   5.188630   2.501151   2.506966   5.438904
    18  H    5.071970   4.816388   2.551230   3.096938   4.585645
    19  C    2.181363   2.182886   4.551882   4.492573   3.090069
    20  H    2.506994   2.501674   5.188505   5.124718   4.105083
    21  H    2.540627   3.096868   5.101964   4.727212   2.509767
    22  H    3.097007   2.550921   4.816424   5.072108   3.278336
    23  C    3.149651   4.434379   4.435776   3.151382   2.183229
    24  H    4.154648   5.459244   5.460251   4.155541   2.507489
    25  H    2.551408   4.078337   4.656984   3.375907   2.547435
    26  H    3.370976   4.654470   4.079970   2.552090   3.097478
                   11         12         13         14         15
    11  H    0.000000
    12  H    4.075908   0.000000
    13  H    2.872141   1.778448   0.000000
    14  H    3.377476   1.778333   1.773498   0.000000
    15  C    3.088131   3.784941   3.168209   4.470087   0.000000
    16  H    2.507870   4.434714   3.481289   4.731944   1.091450
    17  H    4.102945   4.591065   4.143340   5.480189   1.090596
    18  H    3.277698   3.335495   2.533352   4.101693   1.091476
    19  C    4.402646   3.792797   4.465483   3.159057   5.611915
    20  H    5.439209   4.599768   5.476611   4.132938   6.478842
    21  H    4.053737   4.441118   4.724509   3.475339   5.800450
    22  H    4.587231   3.344953   4.095901   2.522483   5.842309
    23  C    2.183212   5.172628   4.583790   4.585905   3.962395
    24  H    2.507541   6.030212   5.229688   5.233742   4.719060
    25  H    3.097464   5.402842   5.138408   4.823431   4.657304
    26  H    2.547348   5.402404   4.826442   5.141909   3.427517
                   16         17         18         19         20
    16  H    0.000000
    17  H    1.759459   0.000000
    18  H    1.772198   1.758652   0.000000
    19  C    5.801246   6.478635   5.842178   0.000000
    20  H    6.718354   7.267512   6.764017   1.090592   0.000000
    21  H    5.783864   6.717451   6.089749   1.091470   1.759582
    22  H    6.090639   6.763931   5.869735   1.091511   1.758720
    23  C    3.414025   4.743211   4.629789   3.957256   4.737528
    24  H    3.984472   5.486626   5.334577   4.714743   5.481614
    25  H    4.281863   5.391505   5.355157   3.419991   4.015576
    26  H    2.843313   4.023633   4.276319   4.651226   5.384354
                   21         22         23         24         25
    21  H    0.000000
    22  H    1.772213   0.000000
    23  C    3.407151   4.625233   0.000000
    24  H    3.978554   5.330599   1.090547   0.000000
    25  H    2.833575   4.269066   1.091637   1.759579   0.000000
    26  H    4.274169   5.350479   1.091633   1.759556   1.771251
                   26
    26  H    0.000000
 Symmetry turned off by external request.
 Stoichiometry    C7H18P
 Rotational constants (GHZ):      1.8864248      1.2694544      1.0116175
 Standard basis: 6-311+G(d,p) (5D, 7F)
   292 basis functions,   446 primitive gaussians,   300 cartesian basis functions
    37 alpha electrons       37 beta electrons
       nuclear repulsion energy       515.8537174769 Hartrees.
 NAtoms=   26 NActive=   26 NUniq=   26 SFac= 1.00D+00 NAtFMM=   60 NAOKFM=F Big=F
 Integral buffers will be    131072 words long.
 Raffenetti 2 integral format.
 Two-electron integral symmetry is turned off.
 Nuclear repulsion after empirical dispersion term =      515.8079026505 Hartrees.
 One-electron integrals computed using PRISM.
 NBasis=   292 RedAO= T EigKep=  3.14D-05  NBF=   292
 NBsUse=   292 1.00D-06 EigRej= -1.00D+00 NBFU=   292
 ExpMin= 3.48D-02 ExpMax= 7.75D+04 ExpMxC= 2.65D+03 IAcc=3 IRadAn=         5 AccDes= 0.00D+00
 Harris functional with IExCor=  402 and IRadAn=       5 diagonalized for initial guess.
 HarFok:  IExCor=  402 AccDes= 0.00D+00 IRadAn=         5 IDoV= 1 UseB2=F ITyADJ=14
 ICtDFT=  3500011 ScaDFX=  1.000000  1.000000  1.000000  1.000000
 FoFCou: FMM=F IPFlag=           0 FMFlag=      100000 FMFlg1=           0
         NFxFlg=           0 DoJE=T BraDBF=F KetDBF=T FulRan=T
         wScrn=  0.000000 ICntrl=     500 IOpCl=  0 I1Cent=   200000004 NGrid=           0
         NMat0=    1 NMatS0=      1 NMatT0=    0 NMatD0=    1 NMtDS0=    0 NMtDT0=    0
 Symmetry not used in FoFCou.
 Keep R1 ints in memory in canonical form, NReq=928932933.
 Requested convergence on RMS density matrix=1.00D-10 within 128 cycles.
 Requested convergence on MAX density matrix=1.00D-08.
 Requested convergence on             energy=1.00D-08.
 No special actions if energy rises.
 SCF Done:  E(RB3LYP) =  -618.900372893     A.U. after   14 cycles
            NFock= 14  Conv=0.86D-10     -V/T= 2.0033

 **********************************************************************

            Population analysis using the SCF density.

 **********************************************************************

 Alpha  occ. eigenvalues --  -77.27755 -10.35306 -10.35306 -10.35275 -10.34806
 Alpha  occ. eigenvalues --  -10.31970 -10.31915 -10.31912  -6.77336  -4.93380
 Alpha  occ. eigenvalues --   -4.93350  -4.93346  -0.99495  -0.93003  -0.92606
 Alpha  occ. eigenvalues --   -0.89794  -0.82635  -0.79763  -0.78128  -0.70670
 Alpha  occ. eigenvalues --   -0.64426  -0.64255  -0.62402  -0.60039  -0.59055
 Alpha  occ. eigenvalues --   -0.58350  -0.57264  -0.56999  -0.56804  -0.54189
 Alpha  occ. eigenvalues --   -0.53553  -0.52671  -0.52156  -0.51333  -0.50811
 Alpha  occ. eigenvalues --   -0.49131  -0.49083
 Alpha virt. eigenvalues --   -0.14162  -0.12391  -0.11974  -0.11881  -0.10876
 Alpha virt. eigenvalues --   -0.10414  -0.10044  -0.08472  -0.07808  -0.07375
 Alpha virt. eigenvalues --   -0.06853  -0.06747  -0.05519  -0.04966  -0.04669
 Alpha virt. eigenvalues --   -0.04569  -0.04231  -0.03837  -0.03559  -0.03261
 Alpha virt. eigenvalues --   -0.02556  -0.02400  -0.02300  -0.00913  -0.00251
 Alpha virt. eigenvalues --    0.00066   0.00400   0.00728   0.00830   0.01937
 Alpha virt. eigenvalues --    0.02300   0.02741   0.03874   0.04081   0.04897
 Alpha virt. eigenvalues --    0.04925   0.05577   0.05727   0.06740   0.07567
 Alpha virt. eigenvalues --    0.07589   0.08474   0.09067   0.09773   0.10373
 Alpha virt. eigenvalues --    0.10633   0.11143   0.11638   0.12590   0.12764
 Alpha virt. eigenvalues --    0.13222   0.15500   0.15986   0.16456   0.16880
 Alpha virt. eigenvalues --    0.18396   0.18964   0.22011   0.22858   0.23644
 Alpha virt. eigenvalues --    0.23938   0.26957   0.27653   0.29376   0.29778
 Alpha virt. eigenvalues --    0.30026   0.32002   0.32898   0.35539   0.36334
 Alpha virt. eigenvalues --    0.37400   0.39440   0.39673   0.40797   0.41080
 Alpha virt. eigenvalues --    0.42523   0.44767   0.45064   0.46103   0.48221
 Alpha virt. eigenvalues --    0.48843   0.49999   0.50304   0.50861   0.52112
 Alpha virt. eigenvalues --    0.52125   0.52762   0.53665   0.54008   0.54263
 Alpha virt. eigenvalues --    0.55168   0.56057   0.57425   0.59013   0.59055
 Alpha virt. eigenvalues --    0.59325   0.59947   0.61834   0.64223   0.64790
 Alpha virt. eigenvalues --    0.64932   0.67900   0.68524   0.69319   0.69839
 Alpha virt. eigenvalues --    0.72362   0.74958   0.76053   0.80723   0.82611
 Alpha virt. eigenvalues --    0.85148   0.85537   0.88097   0.89180   0.93149
 Alpha virt. eigenvalues --    0.95056   0.98459   1.00913   1.01212   1.08566
 Alpha virt. eigenvalues --    1.09880   1.17633   1.18200   1.23630   1.25888
 Alpha virt. eigenvalues --    1.27637   1.28799   1.30987   1.32293   1.33745
 Alpha virt. eigenvalues --    1.38302   1.39017   1.39187   1.39760   1.40274
 Alpha virt. eigenvalues --    1.41334   1.42127   1.42752   1.43316   1.43690
 Alpha virt. eigenvalues --    1.43851   1.46345   1.46380   1.46797   1.47177
 Alpha virt. eigenvalues --    1.49489   1.50117   1.51758   1.53918   1.54067
 Alpha virt. eigenvalues --    1.55371   1.57408   1.59730   1.60715   1.61227
 Alpha virt. eigenvalues --    1.63922   1.65043   1.67518   1.67866   1.69970
 Alpha virt. eigenvalues --    1.69976   1.74483   1.76609   1.79306   1.82473
 Alpha virt. eigenvalues --    1.84951   1.87629   1.89121   1.89425   1.91219
 Alpha virt. eigenvalues --    1.92087   1.93753   1.96204   1.96520   1.96600
 Alpha virt. eigenvalues --    2.02110   2.03364   2.03779   2.06009   2.07671
 Alpha virt. eigenvalues --    2.11373   2.16523   2.17592   2.18586   2.19424
 Alpha virt. eigenvalues --    2.19831   2.28921   2.29928   2.32164   2.32519
 Alpha virt. eigenvalues --    2.33317   2.34782   2.34848   2.35124   2.38987
 Alpha virt. eigenvalues --    2.39580   2.40560   2.42295   2.42464   2.43539
 Alpha virt. eigenvalues --    2.43799   2.44603   2.45172   2.45225   2.46266
 Alpha virt. eigenvalues --    2.46716   2.48807   2.48906   2.49323   2.49774
 Alpha virt. eigenvalues --    2.54331   2.57397   2.58563   2.60872   2.61518
 Alpha virt. eigenvalues --    2.64501   2.70140   2.70393   2.73451   2.77355
 Alpha virt. eigenvalues --    2.83414   2.87219   2.92042   3.02419   3.04259
 Alpha virt. eigenvalues --    3.09591   3.20297   3.21940   3.23157   3.54899
 Alpha virt. eigenvalues --    3.57493   3.58405   3.59103   3.60031   3.65542
 Alpha virt. eigenvalues --    3.65835   3.66099   3.66560   3.67752   3.69026
 Alpha virt. eigenvalues --    4.00011   4.00850   4.02019   7.02971  13.88730
 Alpha virt. eigenvalues --   13.89188  13.89969  23.67669  23.68173  23.70696
 Alpha virt. eigenvalues --   23.77483  23.80884  23.82350  23.83792 163.18676
          Condensed to atoms (all electrons):
               1          2          3          4          5          6
     1  P   14.473523   0.055240   0.054513  -0.066212   0.190687   0.024499
     2  C    0.055240   6.367202  -0.223637  -0.208535  -0.201891   0.374732
     3  C    0.054513  -0.223637   6.367352  -0.209871  -0.199513  -0.003637
     4  C   -0.066212  -0.208535  -0.209871   6.663437  -0.241695  -0.034836
     5  C    0.190687  -0.201891  -0.199513  -0.241695   5.874389   0.017970
     6  H    0.024499   0.374732  -0.003637  -0.034836   0.017970   0.453568
     7  H    0.016648   0.376916  -0.015718   0.028927  -0.023528  -0.018094
     8  H    0.016809  -0.015307   0.376877   0.028868  -0.023881  -0.000326
     9  H    0.024679  -0.003882   0.374438  -0.034608   0.018136   0.001768
    10  H    0.023948  -0.035512   0.022737   0.362783  -0.007738   0.000210
    11  H    0.023997   0.022744  -0.035372   0.362512  -0.008249  -0.000101
    12  H   -0.038993  -0.010222  -0.009770   0.029450   0.394617  -0.000132
    13  H    0.016567   0.028228  -0.028618  -0.024305   0.361052  -0.000148
    14  H    0.016756  -0.028330   0.028210  -0.024745   0.360827   0.000037
    15  C   -0.081209   0.071633  -0.312604  -0.033731   0.051557   0.002741
    16  H   -0.023181  -0.003788  -0.007022   0.027890  -0.007309  -0.000003
    17  H    0.023208  -0.000681  -0.032301  -0.000299   0.000925  -0.000003
    18  H   -0.016090   0.002150  -0.021092  -0.013825   0.008915  -0.000004
    19  C   -0.081064  -0.312555   0.071356  -0.032294   0.052886  -0.038544
    20  H    0.023185  -0.032472  -0.000675  -0.000328   0.000933  -0.005731
    21  H   -0.023649  -0.007123  -0.003849   0.028263  -0.007087  -0.006193
    22  H   -0.015558  -0.020648   0.002202  -0.014015   0.008313   0.005426
    23  C   -0.177192   0.008161   0.008625  -0.336331   0.058768   0.003015
    24  H    0.031931  -0.000318  -0.000329  -0.030962  -0.000250   0.000017
    25  H   -0.017224   0.024306  -0.008328  -0.009979  -0.001602  -0.001121
    26  H   -0.016508  -0.008505   0.023968  -0.009769  -0.001490  -0.000077
               7          8          9         10         11         12
     1  P    0.016648   0.016809   0.024679   0.023948   0.023997  -0.038993
     2  C    0.376916  -0.015307  -0.003882  -0.035512   0.022744  -0.010222
     3  C   -0.015718   0.376877   0.374438   0.022737  -0.035372  -0.009770
     4  C    0.028927   0.028868  -0.034608   0.362783   0.362512   0.029450
     5  C   -0.023528  -0.023881   0.018136  -0.007738  -0.008249   0.394617
     6  H   -0.018094  -0.000326   0.001768   0.000210  -0.000101  -0.000132
     7  H    0.456389   0.001867  -0.000312  -0.000286  -0.000127   0.001008
     8  H    0.001867   0.456481  -0.018084  -0.000128  -0.000284   0.001013
     9  H   -0.000312  -0.018084   0.453728  -0.000101   0.000207  -0.000133
    10  H   -0.000286  -0.000128  -0.000101   0.452004  -0.018992  -0.000253
    11  H   -0.000127  -0.000284   0.000207  -0.018992   0.452185  -0.000251
    12  H    0.001008   0.001013  -0.000133  -0.000253  -0.000251   0.433314
    13  H   -0.000210   0.000096   0.000030   0.000052   0.001179  -0.014099
    14  H    0.000080  -0.000210  -0.000148   0.001164   0.000070  -0.014072
    15  C    0.003697  -0.035936  -0.038486  -0.011146   0.019580  -0.000813
    16  H   -0.000008   0.005081  -0.006208   0.000172  -0.001972   0.000036
    17  H   -0.000004  -0.006041  -0.005733   0.000017  -0.000032  -0.000029
    18  H   -0.000015  -0.004914   0.005426  -0.000013  -0.000342  -0.000370
    19  C   -0.035659   0.003698   0.002750   0.019453  -0.011159  -0.000599
    20  H   -0.006026  -0.000004  -0.000003  -0.000030   0.000017  -0.000029
    21  H    0.005078  -0.000008  -0.000003  -0.002026   0.000173   0.000033
    22  H   -0.004951  -0.000015  -0.000004  -0.000333  -0.000011  -0.000352
    23  C   -0.007658  -0.007624   0.002789  -0.022349  -0.021965  -0.000623
    24  H    0.000013   0.000013   0.000017  -0.005898  -0.005897   0.000004
    25  H    0.000176  -0.000061  -0.000073  -0.006104   0.004903  -0.000011
    26  H   -0.000061   0.000172  -0.001084   0.004900  -0.006108  -0.000011
              13         14         15         16         17         18
     1  P    0.016567   0.016756  -0.081209  -0.023181   0.023208  -0.016090
     2  C    0.028228  -0.028330   0.071633  -0.003788  -0.000681   0.002150
     3  C   -0.028618   0.028210  -0.312604  -0.007022  -0.032301  -0.021092
     4  C   -0.024305  -0.024745  -0.033731   0.027890  -0.000299  -0.013825
     5  C    0.361052   0.360827   0.051557  -0.007309   0.000925   0.008915
     6  H   -0.000148   0.000037   0.002741  -0.000003  -0.000003  -0.000004
     7  H   -0.000210   0.000080   0.003697  -0.000008  -0.000004  -0.000015
     8  H    0.000096  -0.000210  -0.035936   0.005081  -0.006041  -0.004914
     9  H    0.000030  -0.000148  -0.038486  -0.006208  -0.005733   0.005426
    10  H    0.000052   0.001164  -0.011146   0.000172   0.000017  -0.000013
    11  H    0.001179   0.000070   0.019580  -0.001972  -0.000032  -0.000342
    12  H   -0.014099  -0.014072  -0.000813   0.000036  -0.000029  -0.000370
    13  H    0.440572  -0.012984   0.010991  -0.000157  -0.000103   0.001773
    14  H   -0.012984   0.440912  -0.005427  -0.000046   0.000015   0.000019
    15  C    0.010991  -0.005427   5.744391   0.393466   0.395794   0.405825
    16  H   -0.000157  -0.000046   0.393466   0.511388  -0.020655  -0.029321
    17  H   -0.000103   0.000015   0.395794  -0.020655   0.473296  -0.020093
    18  H    0.001773   0.000019   0.405825  -0.029321  -0.020093   0.514297
    19  C   -0.005484   0.010956  -0.038037   0.000222   0.000086   0.000380
    20  H    0.000015  -0.000106   0.000088   0.000000  -0.000000   0.000000
    21  H   -0.000047  -0.000176   0.000226  -0.000004   0.000000  -0.000000
    22  H    0.000020   0.001950   0.000376  -0.000000   0.000000  -0.000003
    23  C    0.000306   0.000306   0.083666  -0.007880  -0.000726  -0.000179
    24  H   -0.000009  -0.000009  -0.000355  -0.000066  -0.000001   0.000009
    25  H   -0.000002   0.000008   0.004121  -0.000112   0.000005  -0.000001
    26  H    0.000007  -0.000002  -0.018320   0.000957   0.000004   0.000000
              19         20         21         22         23         24
     1  P   -0.081064   0.023185  -0.023649  -0.015558  -0.177192   0.031931
     2  C   -0.312555  -0.032472  -0.007123  -0.020648   0.008161  -0.000318
     3  C    0.071356  -0.000675  -0.003849   0.002202   0.008625  -0.000329
     4  C   -0.032294  -0.000328   0.028263  -0.014015  -0.336331  -0.030962
     5  C    0.052886   0.000933  -0.007087   0.008313   0.058768  -0.000250
     6  H   -0.038544  -0.005731  -0.006193   0.005426   0.003015   0.000017
     7  H   -0.035659  -0.006026   0.005078  -0.004951  -0.007658   0.000013
     8  H    0.003698  -0.000004  -0.000008  -0.000015  -0.007624   0.000013
     9  H    0.002750  -0.000003  -0.000003  -0.000004   0.002789   0.000017
    10  H    0.019453  -0.000030  -0.002026  -0.000333  -0.022349  -0.005898
    11  H   -0.011159   0.000017   0.000173  -0.000011  -0.021965  -0.005897
    12  H   -0.000599  -0.000029   0.000033  -0.000352  -0.000623   0.000004
    13  H   -0.005484   0.000015  -0.000047   0.000020   0.000306  -0.000009
    14  H    0.010956  -0.000106  -0.000176   0.001950   0.000306  -0.000009
    15  C   -0.038037   0.000088   0.000226   0.000376   0.083666  -0.000355
    16  H    0.000222   0.000000  -0.000004  -0.000000  -0.007880  -0.000066
    17  H    0.000086  -0.000000   0.000000   0.000000  -0.000726  -0.000001
    18  H    0.000380   0.000000  -0.000000  -0.000003  -0.000179   0.000009
    19  C    5.741783   0.396037   0.393781   0.405318   0.082817  -0.000352
    20  H    0.396037   0.473201  -0.020662  -0.020089  -0.000716  -0.000001
    21  H    0.393781  -0.020662   0.511336  -0.029342  -0.008078  -0.000069
    22  H    0.405318  -0.020089  -0.029342   0.514597  -0.000075   0.000009
    23  C    0.082817  -0.000716  -0.008078  -0.000075   5.767529   0.386477
    24  H   -0.000352  -0.000001  -0.000069   0.000009   0.386477   0.474075
    25  H   -0.018374   0.000002   0.000995  -0.000001   0.400751  -0.020149
    26  H    0.004159   0.000005  -0.000114  -0.000001   0.400170  -0.020126
              25         26
     1  P   -0.017224  -0.016508
     2  C    0.024306  -0.008505
     3  C   -0.008328   0.023968
     4  C   -0.009979  -0.009769
     5  C   -0.001602  -0.001490
     6  H   -0.001121  -0.000077
     7  H    0.000176  -0.000061
     8  H   -0.000061   0.000172
     9  H   -0.000073  -0.001084
    10  H   -0.006104   0.004900
    11  H    0.004903  -0.006108
    12  H   -0.000011  -0.000011
    13  H   -0.000002   0.000007
    14  H    0.000008  -0.000002
    15  C    0.004121  -0.018320
    16  H   -0.000112   0.000957
    17  H    0.000005   0.000004
    18  H   -0.000001   0.000000
    19  C   -0.018374   0.004159
    20  H    0.000002   0.000005
    21  H    0.000995  -0.000114
    22  H   -0.000001  -0.000001
    23  C    0.400751   0.400170
    24  H   -0.020149  -0.020126
    25  H    0.506753  -0.028790
    26  H   -0.028790   0.506739
 Mulliken charges:
               1
     1  P    0.540691
     2  C   -0.217904
     3  C   -0.217944
     4  C   -0.205790
     5  C   -0.675742
     6  H    0.224967
     7  H    0.221857
     8  H    0.221848
     9  H    0.224894
    10  H    0.223470
    11  H    0.223296
    12  H    0.231284
    13  H    0.225279
    14  H    0.224945
    15  C   -0.612091
    16  H    0.168520
    17  H    0.193349
    18  H    0.167467
    19  C   -0.611561
    20  H    0.193390
    21  H    0.168544
    22  H    0.167190
    23  C   -0.611984
    24  H    0.192228
    25  H    0.169912
    26  H    0.169885
 Sum of Mulliken charges =   1.00000
 Mulliken charges with hydrogens summed into heavy atoms:
               1
     1  P    0.540691
     2  C    0.228921
     3  C    0.228798
     4  C    0.240975
     5  C    0.005766
    15  C   -0.082754
    19  C   -0.082437
    23  C   -0.079959
 Electronic spatial extent (au):  <R**2>=           3382.4262
 Charge=              1.0000 electrons
 Dipole moment (field-independent basis, Debye):
    X=             -2.8974    Y=              4.4339    Z=             11.1359  Tot=             12.3314
 Quadrupole moment (field-independent basis, Debye-Ang):
   XX=            -44.9537   YY=            -47.4822   ZZ=            -22.2501
   XY=             -2.0772   XZ=             -5.4104   YZ=             11.3790
 Traceless Quadrupole moment (field-independent basis, Debye-Ang):
   XX=             -6.7250   YY=             -9.2535   ZZ=             15.9786
   XY=             -2.0772   XZ=             -5.4104   YZ=             11.3790
 Octapole moment (field-independent basis, Debye-Ang**2):
  XXX=            103.5717  YYY=           -138.8120  ZZZ=           -300.2448  XYY=             33.6214
  XXY=            -44.8220  XXZ=           -111.4071  XZZ=             23.5621  YZZ=            -13.4067
  YYZ=           -119.0144  XYZ=            -10.1269
 Hexadecapole moment (field-independent basis, Debye-Ang**3):
 XXXX=           -944.9683 YYYY=           -586.2499 ZZZZ=          -2317.5387 XXXY=             64.7884
 XXXZ=            195.8775 YYYX=             62.7102 YYYZ=           -391.9646 ZZZX=            152.2947
 ZZZY=           -288.5247 XXYY=           -248.6079 XXZZ=           -523.6290 YYZZ=           -493.1976
 XXYZ=           -111.3631 YYXZ=             49.3937 ZZXY=            -23.3905
 N-N= 5.158079026505D+02 E-N=-2.471773470019D+03  KE= 6.168704441625D+02
 Breneman (CHELPG) radii used.
 Generate Potential Derived Charges using the Breneman model, NDens= 1.
 Grid spacing= 0.300 Box extension= 2.800
 NStep X,Y,Z=   40     32     38   Total possible points=       48640
 Number of Points to Fit=   14799

 **********************************************************************

            Electrostatic Properties Using The SCF Density

 **********************************************************************

       Atomic Center    1 is at  -0.523424  0.930753  2.195210
       Atomic Center    2 is at  -1.589788 -0.387894  1.529673
       Atomic Center    3 is at   0.837058  0.159742  3.129726
       Atomic Center    4 is at  -1.486507  2.031676  3.279402
       Atomic Center    5 is at   0.153992  1.910397  0.830831
       Atomic Center    6 is at  -1.878856 -1.016049  2.376928
       Atomic Center    7 is at  -0.955899 -1.003678  0.884315
       Atomic Center    8 is at   1.376708 -0.477943  2.422903
       Atomic Center    9 is at   0.375871 -0.506461  3.864232
       Atomic Center   10 is at  -2.247061  2.505651  2.652706
       Atomic Center   11 is at  -0.809441  2.827098  3.603058
       Atomic Center   12 is at   0.741117  1.269951  0.170262
       Atomic Center   13 is at   0.793211  2.702475  1.222897
       Atomic Center   14 is at  -0.657789  2.364170  0.260897
       Atomic Center   15 is at   1.782009  1.160034  3.807602
       Atomic Center   16 is at   1.262684  1.774450  4.545206
       Atomic Center   17 is at   2.568820  0.615283  4.330645
       Atomic Center   18 is at   2.266292  1.819596  3.085268
       Atomic Center   19 is at  -2.823059  0.121632  0.773025
       Atomic Center   20 is at  -3.395069 -0.729181  0.401119
       Atomic Center   21 is at  -3.483519  0.704320  1.417674
       Atomic Center   22 is at  -2.550382  0.733586 -0.088692
       Atomic Center   23 is at  -2.119878  1.316730  4.479392
       Atomic Center   24 is at  -2.677166  2.037837  5.078332
       Atomic Center   25 is at  -2.819676  0.539147  4.167433
       Atomic Center   26 is at  -1.367221  0.864105  5.127697
   14799 points will be used for fitting atomic charges
 Fitting point charges to electrostatic potential
 The dipole moment will be constrained to the correct value
 Charges from ESP fit, RMS=   0.00174 RRMS=   0.01454:
 ESP charges:
               1
     1  P    0.411747
     2  C   -0.053261
     3  C   -0.032234
     4  C    0.060058
     5  C   -0.441851
     6  H    0.060244
     7  H    0.075197
     8  H    0.069100
     9  H    0.053885
    10  H    0.045499
    11  H    0.044983
    12  H    0.183835
    13  H    0.163030
    14  H    0.164435
    15  C   -0.131527
    16  H    0.058116
    17  H    0.091604
    18  H    0.056276
    19  C   -0.127237
    20  H    0.092353
    21  H    0.057196
    22  H    0.056013
    23  C   -0.215357
    24  H    0.100548
    25  H    0.079012
    26  H    0.078338
 Sum of ESP charges =   1.00000
 ESP charges with hydrogens summed into heavy atoms:
               1
     1  P    0.411747
     2  C    0.082180
     3  C    0.090751
     4  C    0.150540
     5  C    0.069449
    15  C    0.074468
    19  C    0.078324
    23  C    0.042540
 Charge=   1.00000 Dipole=    -2.8974     4.4339    11.1359 Tot=    12.3314
 -----------------------------------------------------------------

              Electrostatic Properties (Atomic Units)

 -----------------------------------------------------------------
    Center     Electric         -------- Electric Field --------
               Potential          X             Y             Z
 -----------------------------------------------------------------
    1 Atom    -53.957944
    2 Atom    -14.593299
    3 Atom    -14.593296
    4 Atom    -14.593561
    5 Atom    -14.598685
    6 Atom     -0.937105
    7 Atom     -0.936543
    8 Atom     -0.936544
    9 Atom     -0.937094
   10 Atom     -0.936809
   11 Atom     -0.936797
   12 Atom     -0.927033
   13 Atom     -0.927042
   14 Atom     -0.927024
   15 Atom    -14.626106
   16 Atom     -0.972416
   17 Atom     -0.974512
   18 Atom     -0.972373
   19 Atom    -14.626073
   20 Atom     -0.974483
   21 Atom     -0.972386
   22 Atom     -0.972331
   23 Atom    -14.625502
   24 Atom     -0.973954
   25 Atom     -0.971632
   26 Atom     -0.971630
 -----------------------------------------------------------------
 Calling FoFJK, ICntrl=      2127 FMM=F ISym2X=0 I1Cent= 0 IOpClX= 0 NMat=1 NMatS=1 NMatT=0.
 -------------------------------------------------------------------
 Center     Atomic                   Forces (Hartrees/Bohr)
 Number     Number              X              Y              Z
 -------------------------------------------------------------------
      1       15          -0.000000033    0.000000062   -0.000000011
      2        6          -0.000000549    0.000000846   -0.000000619
      3        6          -0.000000198   -0.000000745   -0.000000491
      4        6           0.000000420   -0.000000144    0.000000583
      5        6           0.000000193    0.000000513    0.000000419
      6        1          -0.000000698    0.000000459   -0.000000823
      7        1          -0.000000776    0.000000810   -0.000000869
      8        1          -0.000000491   -0.000000702   -0.000000796
      9        1          -0.000000401   -0.000001004   -0.000000739
     10        1           0.000000545    0.000000461    0.000000857
     11        1           0.000000725   -0.000000491    0.000000914
     12        1          -0.000000048    0.000000593    0.000000054
     13        1           0.000000516    0.000000086    0.000000719
     14        1           0.000000326    0.000001025    0.000000659
     15        6           0.000000113   -0.000001572   -0.000000126
     16        1           0.000000416   -0.000001614    0.000000274
     17        1           0.000000045   -0.000001990   -0.000000375
     18        1           0.000000352   -0.000001260    0.000000187
     19        6          -0.000000288    0.000001449   -0.000000181
     20        1          -0.000000731    0.000001883   -0.000000612
     21        1          -0.000000172    0.000001476    0.000000108
     22        1          -0.000000256    0.000001875    0.000000010
     23        6           0.000000298   -0.000000411    0.000000220
     24        1           0.000000542   -0.000000513    0.000000661
     25        1          -0.000000032   -0.000000083   -0.000000049
     26        1           0.000000183   -0.000001010    0.000000022
 -------------------------------------------------------------------
 Cartesian Forces:  Max     0.000001990 RMS     0.000000728

 GradGradGradGradGradGradGradGradGradGradGradGradGradGradGradGradGradGrad
 Berny optimization.
 FormGI is forming the generalized inverse of G from B-inverse, IUseBI=4.
 Internal  Forces:  Max     0.000000096 RMS     0.000000017
 Search for a local minimum.
 Step number   1 out of a maximum of  156
 All quantities printed in internal units (Hartrees-Bohrs-Radians)
 Mixed Optimization -- En-DIIS/RFO-DIIS
 Second derivative matrix not updated -- first step.
 ITU=  0
     Eigenvalues ---    0.00316   0.00317   0.00320   0.00876   0.00877
     Eigenvalues ---    0.00890   0.01017   0.03581   0.03583   0.03627
     Eigenvalues ---    0.04866   0.04866   0.04877   0.05183   0.05291
     Eigenvalues ---    0.05293   0.05304   0.05321   0.05377   0.05642
     Eigenvalues ---    0.05653   0.05654   0.06146   0.06159   0.08695
     Eigenvalues ---    0.08762   0.08766   0.12378   0.12429   0.12432
     Eigenvalues ---    0.14518   0.14838   0.16000   0.16000   0.16000
     Eigenvalues ---    0.16000   0.16000   0.16000   0.16000   0.16000
     Eigenvalues ---    0.16000   0.16000   0.16000   0.16000   0.21925
     Eigenvalues ---    0.21940   0.21941   0.24473   0.24477   0.24550
     Eigenvalues ---    0.25261   0.29059   0.29061   0.29083   0.34320
     Eigenvalues ---    0.34322   0.34397   0.34399   0.34405   0.34406
     Eigenvalues ---    0.34624   0.34625   0.34639   0.34643   0.34643
     Eigenvalues ---    0.34646   0.34647   0.34727   0.34728   0.34744
     Eigenvalues ---    0.34744   0.34749
 RFO step:  Lambda= 0.00000000D+00 EMin= 3.16470078D-03
 Linear search not attempted -- first point.
 Iteration  1 RMS(Cart)=  0.00000112 RMS(Int)=  0.00000000
 Iteration  2 RMS(Cart)=  0.00000000 RMS(Int)=  0.00000000
 Variable       Old X    -DE/DX   Delta X   Delta X   Delta X     New X
                                 (Linear)    (Quad)   (Total)
    R1        3.44268  -0.00000   0.00000  -0.00000  -0.00000   3.44268
    R2        3.44256  -0.00000   0.00000  -0.00000  -0.00000   3.44256
    R3        3.44067  -0.00000   0.00000  -0.00000  -0.00000   3.44067
    R4        3.42250  -0.00000   0.00000  -0.00000  -0.00000   3.42250
    R5        2.06662   0.00000   0.00000   0.00000   0.00000   2.06662
    R6        2.06793   0.00000   0.00000   0.00000   0.00000   2.06793
    R7        2.89880  -0.00000   0.00000  -0.00000  -0.00000   2.89880
    R8        2.06790   0.00000   0.00000   0.00000   0.00000   2.06790
    R9        2.06666   0.00000   0.00000   0.00000   0.00000   2.06666
   R10        2.89876  -0.00000   0.00000  -0.00000  -0.00000   2.89876
   R11        2.06650  -0.00000   0.00000  -0.00000  -0.00000   2.06650
   R12        2.06652   0.00000   0.00000   0.00000   0.00000   2.06652
   R13        2.89830  -0.00000   0.00000  -0.00000  -0.00000   2.89830
   R14        2.06252   0.00000   0.00000   0.00000   0.00000   2.06252
   R15        2.06119   0.00000   0.00000   0.00000   0.00000   2.06119
   R16        2.06121   0.00000   0.00000   0.00000   0.00000   2.06121
   R17        2.06254   0.00000   0.00000   0.00000   0.00000   2.06254
   R18        2.06093   0.00000   0.00000   0.00000   0.00000   2.06093
   R19        2.06259   0.00000   0.00000   0.00000   0.00000   2.06259
   R20        2.06092   0.00000   0.00000   0.00000   0.00000   2.06092
   R21        2.06258   0.00000   0.00000   0.00000   0.00000   2.06258
   R22        2.06266   0.00000   0.00000   0.00000   0.00000   2.06266
   R23        2.06084   0.00000   0.00000   0.00000   0.00000   2.06084
   R24        2.06290   0.00000   0.00000   0.00000   0.00000   2.06290
   R25        2.06289   0.00000   0.00000   0.00000   0.00000   2.06289
    A1        1.89462  -0.00000   0.00000  -0.00000  -0.00000   1.89462
    A2        1.92366   0.00000   0.00000   0.00000   0.00000   1.92366
    A3        1.91266   0.00000   0.00000   0.00000   0.00000   1.91266
    A4        1.92354   0.00000   0.00000   0.00000   0.00000   1.92354
    A5        1.91351   0.00000   0.00000   0.00000   0.00000   1.91351
    A6        1.89586  -0.00000   0.00000  -0.00000  -0.00000   1.89586
    A7        1.86236  -0.00000   0.00000  -0.00000  -0.00000   1.86236
    A8        1.85843  -0.00000   0.00000   0.00000   0.00000   1.85843
    A9        1.99365   0.00000   0.00000   0.00000   0.00000   1.99365
   A10        1.86167  -0.00000   0.00000  -0.00000  -0.00000   1.86167
   A11        1.93952  -0.00000   0.00000  -0.00000  -0.00000   1.93952
   A12        1.94091  -0.00000   0.00000   0.00000   0.00000   1.94091
   A13        1.85832   0.00000   0.00000   0.00000   0.00000   1.85832
   A14        1.86233  -0.00000   0.00000  -0.00000  -0.00000   1.86233
   A15        1.99408   0.00000   0.00000   0.00000   0.00000   1.99408
   A16        1.86167  -0.00000   0.00000  -0.00000  -0.00000   1.86167
   A17        1.94084  -0.00000   0.00000  -0.00000  -0.00000   1.94084
   A18        1.93930  -0.00000   0.00000  -0.00000  -0.00000   1.93930
   A19        1.86367   0.00000   0.00000   0.00000   0.00000   1.86367
   A20        1.86351   0.00000   0.00000   0.00000   0.00000   1.86351
   A21        1.98502   0.00000   0.00000   0.00000   0.00000   1.98502
   A22        1.85976   0.00000   0.00000   0.00000   0.00000   1.85976
   A23        1.94251  -0.00000   0.00000  -0.00000  -0.00000   1.94251
   A24        1.94248  -0.00000   0.00000  -0.00000  -0.00000   1.94248
   A25        1.91745  -0.00000   0.00000  -0.00000  -0.00000   1.91745
   A26        1.91900   0.00000   0.00000   0.00000   0.00000   1.91900
   A27        1.91802  -0.00000   0.00000  -0.00000  -0.00000   1.91802
   A28        1.90542  -0.00000   0.00000  -0.00000  -0.00000   1.90542
   A29        1.90523   0.00000   0.00000  -0.00000  -0.00000   1.90523
   A30        1.89850   0.00000   0.00000   0.00000   0.00000   1.89850
   A31        1.95263  -0.00000   0.00000  -0.00000  -0.00000   1.95263
   A32        1.90778   0.00000   0.00000   0.00000   0.00000   1.90778
   A33        1.95511   0.00000   0.00000   0.00000   0.00000   1.95511
   A34        1.87586   0.00000   0.00000   0.00000   0.00000   1.87586
   A35        1.89461  -0.00000   0.00000  -0.00000  -0.00000   1.89461
   A36        1.87457  -0.00000   0.00000  -0.00000  -0.00000   1.87457
   A37        1.90790   0.00000   0.00000   0.00000   0.00000   1.90790
   A38        1.95248  -0.00000   0.00000  -0.00000  -0.00000   1.95248
   A39        1.95497   0.00000   0.00000   0.00000   0.00000   1.95497
   A40        1.87603   0.00000   0.00000   0.00000   0.00000   1.87603
   A41        1.87464  -0.00000   0.00000  -0.00000  -0.00000   1.87464
   A42        1.89457  -0.00000   0.00000  -0.00000  -0.00000   1.89457
   A43        1.90975  -0.00000   0.00000  -0.00000  -0.00000   1.90975
   A44        1.95324   0.00000   0.00000   0.00000   0.00000   1.95324
   A45        1.95326  -0.00000   0.00000  -0.00000  -0.00000   1.95326
   A46        1.87587   0.00000   0.00000   0.00000   0.00000   1.87587
   A47        1.87584   0.00000   0.00000   0.00000   0.00000   1.87584
   A48        1.89269   0.00000   0.00000   0.00000   0.00000   1.89269
    D1        0.94129   0.00000   0.00000   0.00000   0.00000   0.94129
    D2       -1.04216   0.00000   0.00000   0.00000   0.00000  -1.04216
    D3        3.09170   0.00000   0.00000   0.00000   0.00000   3.09171
    D4       -1.16696   0.00000   0.00000   0.00000   0.00000  -1.16696
    D5        3.13278   0.00000   0.00000   0.00000   0.00000   3.13278
    D6        0.98345   0.00000   0.00000   0.00000   0.00000   0.98346
    D7        3.03070   0.00000   0.00000   0.00000   0.00000   3.03071
    D8        1.04725   0.00000   0.00000   0.00000   0.00000   1.04725
    D9       -1.10207   0.00000   0.00000   0.00000   0.00000  -1.10207
   D10        1.04111  -0.00000   0.00000  -0.00000  -0.00000   1.04111
   D11       -0.94228  -0.00000   0.00000  -0.00000  -0.00000  -0.94228
   D12       -3.09267  -0.00000   0.00000  -0.00000  -0.00000  -3.09267
   D13       -3.13375  -0.00000   0.00000  -0.00000  -0.00000  -3.13375
   D14        1.16605  -0.00000   0.00000  -0.00000  -0.00000   1.16604
   D15       -0.98434  -0.00000   0.00000  -0.00000  -0.00000  -0.98434
   D16       -1.04778  -0.00000   0.00000  -0.00000  -0.00000  -1.04778
   D17       -3.03116  -0.00000   0.00000  -0.00000  -0.00000  -3.03116
   D18        1.10164  -0.00000   0.00000  -0.00000  -0.00000   1.10163
   D19       -1.10625  -0.00000   0.00000  -0.00000  -0.00000  -1.10625
   D20       -3.09046  -0.00000   0.00000  -0.00000  -0.00000  -3.09046
   D21        1.04332  -0.00000   0.00000  -0.00000  -0.00000   1.04332
   D22        3.08609   0.00000   0.00000  -0.00000  -0.00000   3.08609
   D23        1.10189  -0.00000   0.00000  -0.00000  -0.00000   1.10189
   D24       -1.04752   0.00000   0.00000  -0.00000  -0.00000  -1.04752
   D25        0.98944  -0.00000   0.00000  -0.00000  -0.00000   0.98944
   D26       -0.99477  -0.00000   0.00000  -0.00000  -0.00000  -0.99477
   D27        3.13901  -0.00000   0.00000  -0.00000  -0.00000   3.13901
   D28       -1.04483   0.00000   0.00000  -0.00000  -0.00000  -1.04483
   D29        3.14094   0.00000   0.00000  -0.00000  -0.00000   3.14094
   D30        1.05172   0.00000   0.00000  -0.00000  -0.00000   1.05172
   D31        1.03297  -0.00000   0.00000  -0.00000  -0.00000   1.03297
   D32       -1.06444  -0.00000   0.00000  -0.00000  -0.00000  -1.06444
   D33        3.12952  -0.00000   0.00000  -0.00000  -0.00000   3.12952
   D34        3.13584  -0.00000   0.00000  -0.00000  -0.00000   3.13584
   D35        1.03843  -0.00000   0.00000  -0.00000  -0.00000   1.03843
   D36       -1.05079  -0.00000   0.00000  -0.00000  -0.00000  -1.05079
   D37        3.13003  -0.00000   0.00000  -0.00000  -0.00000   3.13003
   D38       -1.07737   0.00000   0.00000  -0.00000  -0.00000  -1.07737
   D39        1.05441  -0.00000   0.00000  -0.00000  -0.00000   1.05441
   D40       -1.04508   0.00000   0.00000  -0.00000  -0.00000  -1.04508
   D41        1.03071   0.00000   0.00000  -0.00000  -0.00000   1.03071
   D42       -3.12069  -0.00000   0.00000  -0.00000  -0.00000  -3.12070
   D43        1.02604  -0.00000   0.00000  -0.00000  -0.00000   1.02604
   D44        3.10182  -0.00000   0.00000  -0.00000  -0.00000   3.10182
   D45       -1.04958  -0.00000   0.00000  -0.00000  -0.00000  -1.04958
   D46        1.07840  -0.00000   0.00000   0.00000   0.00000   1.07840
   D47       -3.12919   0.00000   0.00000   0.00000   0.00000  -3.12919
   D48       -1.05365   0.00000   0.00000   0.00000   0.00000  -1.05365
   D49       -3.10070   0.00000   0.00000   0.00000   0.00000  -3.10070
   D50       -1.02511   0.00000   0.00000   0.00000   0.00000  -1.02511
   D51        1.05043   0.00000   0.00000   0.00000   0.00000   1.05044
   D52       -1.02977  -0.00000   0.00000   0.00000   0.00000  -1.02977
   D53        1.04582  -0.00000   0.00000   0.00000   0.00000   1.04582
   D54        3.12136   0.00000   0.00000   0.00000   0.00000   3.12136
   D55        3.14158   0.00000   0.00000   0.00000   0.00000   3.14158
   D56       -1.06433   0.00000   0.00000   0.00000   0.00000  -1.06433
   D57        1.06433   0.00000   0.00000   0.00000   0.00000   1.06433
   D58       -1.03575   0.00000   0.00000   0.00000   0.00000  -1.03574
   D59        1.04153   0.00000   0.00000   0.00000   0.00000   1.04153
   D60       -3.11300   0.00000   0.00000   0.00000   0.00000  -3.11300
   D61        1.03596  -0.00000   0.00000   0.00000   0.00000   1.03596
   D62        3.11323  -0.00000   0.00000   0.00000   0.00000   3.11323
   D63       -1.04130   0.00000   0.00000   0.00000   0.00000  -1.04130
         Item               Value     Threshold  Converged?
 Maximum Force            0.000000     0.000002     YES
 RMS     Force            0.000000     0.000001     YES
 Maximum Displacement     0.000004     0.000006     YES
 RMS     Displacement     0.000001     0.000004     YES
 Predicted change in Energy=-2.854987D-13
 Optimization completed.
    -- Stationary point found.
                           ----------------------------
                           !   Optimized Parameters   !
                           ! (Angstroms and Degrees)  !
 --------------------------                            --------------------------
 ! Name  Definition              Value          Derivative Info.                !
 --------------------------------------------------------------------------------
 ! R1    R(1,2)                  1.8218         -DE/DX =    0.0                 !
 ! R2    R(1,3)                  1.8217         -DE/DX =    0.0                 !
 ! R3    R(1,4)                  1.8207         -DE/DX =    0.0                 !
 ! R4    R(1,5)                  1.8111         -DE/DX =    0.0                 !
 ! R5    R(2,6)                  1.0936         -DE/DX =    0.0                 !
 ! R6    R(2,7)                  1.0943         -DE/DX =    0.0                 !
 ! R7    R(2,19)                 1.534          -DE/DX =    0.0                 !
 ! R8    R(3,8)                  1.0943         -DE/DX =    0.0                 !
 ! R9    R(3,9)                  1.0936         -DE/DX =    0.0                 !
 ! R10   R(3,15)                 1.534          -DE/DX =    0.0                 !
 ! R11   R(4,10)                 1.0935         -DE/DX =    0.0                 !
 ! R12   R(4,11)                 1.0936         -DE/DX =    0.0                 !
 ! R13   R(4,23)                 1.5337         -DE/DX =    0.0                 !
 ! R14   R(5,12)                 1.0914         -DE/DX =    0.0                 !
 ! R15   R(5,13)                 1.0907         -DE/DX =    0.0                 !
 ! R16   R(5,14)                 1.0907         -DE/DX =    0.0                 !
 ! R17   R(15,16)                1.0915         -DE/DX =    0.0                 !
 ! R18   R(15,17)                1.0906         -DE/DX =    0.0                 !
 ! R19   R(15,18)                1.0915         -DE/DX =    0.0                 !
 ! R20   R(19,20)                1.0906         -DE/DX =    0.0                 !
 ! R21   R(19,21)                1.0915         -DE/DX =    0.0                 !
 ! R22   R(19,22)                1.0915         -DE/DX =    0.0                 !
 ! R23   R(23,24)                1.0905         -DE/DX =    0.0                 !
 ! R24   R(23,25)                1.0916         -DE/DX =    0.0                 !
 ! R25   R(23,26)                1.0916         -DE/DX =    0.0                 !
 ! A1    A(2,1,3)              108.554          -DE/DX =    0.0                 !
 ! A2    A(2,1,4)              110.2177         -DE/DX =    0.0                 !
 ! A3    A(2,1,5)              109.5876         -DE/DX =    0.0                 !
 ! A4    A(3,1,4)              110.2107         -DE/DX =    0.0                 !
 ! A5    A(3,1,5)              109.6362         -DE/DX =    0.0                 !
 ! A6    A(4,1,5)              108.625          -DE/DX =    0.0                 !
 ! A7    A(1,2,6)              106.7052         -DE/DX =    0.0                 !
 ! A8    A(1,2,7)              106.4805         -DE/DX =    0.0                 !
 ! A9    A(1,2,19)             114.228          -DE/DX =    0.0                 !
 ! A10   A(6,2,7)              106.6659         -DE/DX =    0.0                 !
 ! A11   A(6,2,19)             111.1262         -DE/DX =    0.0                 !
 ! A12   A(7,2,19)             111.2062         -DE/DX =    0.0                 !
 ! A13   A(1,3,8)              106.4738         -DE/DX =    0.0                 !
 ! A14   A(1,3,9)              106.7035         -DE/DX =    0.0                 !
 ! A15   A(1,3,15)             114.2523         -DE/DX =    0.0                 !
 ! A16   A(8,3,9)              106.6661         -DE/DX =    0.0                 !
 ! A17   A(8,3,15)             111.2017         -DE/DX =    0.0                 !
 ! A18   A(9,3,15)             111.1136         -DE/DX =    0.0                 !
 ! A19   A(1,4,10)             106.7805         -DE/DX =    0.0                 !
 ! A20   A(1,4,11)             106.7715         -DE/DX =    0.0                 !
 ! A21   A(1,4,23)             113.7332         -DE/DX =    0.0                 !
 ! A22   A(10,4,11)            106.5564         -DE/DX =    0.0                 !
 ! A23   A(10,4,23)            111.2979         -DE/DX =    0.0                 !
 ! A24   A(11,4,23)            111.2959         -DE/DX =    0.0                 !
 ! A25   A(1,5,12)             109.8616         -DE/DX =    0.0                 !
 ! A26   A(1,5,13)             109.9507         -DE/DX =    0.0                 !
 ! A27   A(1,5,14)             109.8945         -DE/DX =    0.0                 !
 ! A28   A(12,5,13)            109.1726         -DE/DX =    0.0                 !
 ! A29   A(12,5,14)            109.1615         -DE/DX =    0.0                 !
 ! A30   A(13,5,14)            108.7761         -DE/DX =    0.0                 !
 ! A31   A(3,15,16)            111.8775         -DE/DX =    0.0                 !
 ! A32   A(3,15,17)            109.308          -DE/DX =    0.0                 !
 ! A33   A(3,15,18)            112.0196         -DE/DX =    0.0                 !
 ! A34   A(16,15,17)           107.4786         -DE/DX =    0.0                 !
 ! A35   A(16,15,18)           108.5532         -DE/DX =    0.0                 !
 ! A36   A(17,15,18)           107.4052         -DE/DX =    0.0                 !
 ! A37   A(2,19,20)            109.3146         -DE/DX =    0.0                 !
 ! A38   A(2,19,21)            111.869          -DE/DX =    0.0                 !
 ! A39   A(2,19,22)            112.0116         -DE/DX =    0.0                 !
 ! A40   A(20,19,21)           107.4885         -DE/DX =    0.0                 !
 ! A41   A(20,19,22)           107.409          -DE/DX =    0.0                 !
 ! A42   A(21,19,22)           108.5506         -DE/DX =    0.0                 !
 ! A43   A(4,23,24)            109.4207         -DE/DX =    0.0                 !
 ! A44   A(4,23,25)            111.9124         -DE/DX =    0.0                 !
 ! A45   A(4,23,26)            111.9138         -DE/DX =    0.0                 !
 ! A46   A(24,23,25)           107.4794         -DE/DX =    0.0                 !
 ! A47   A(24,23,26)           107.4777         -DE/DX =    0.0                 !
 ! A48   A(25,23,26)           108.4431         -DE/DX =    0.0                 !
 ! D1    D(3,1,2,6)             53.932          -DE/DX =    0.0                 !
 ! D2    D(3,1,2,7)            -59.7114         -DE/DX =    0.0                 !
 ! D3    D(3,1,2,19)           177.1416         -DE/DX =    0.0                 !
 ! D4    D(4,1,2,6)            -66.8618         -DE/DX =    0.0                 !
 ! D5    D(4,1,2,7)            179.4948         -DE/DX =    0.0                 !
 ! D6    D(4,1,2,19)            56.3478         -DE/DX =    0.0                 !
 ! D7    D(5,1,2,6)            173.6466         -DE/DX =    0.0                 !
 ! D8    D(5,1,2,7)             60.0032         -DE/DX =    0.0                 !
 ! D9    D(5,1,2,19)           -63.1438         -DE/DX =    0.0                 !
 ! D10   D(2,1,3,8)             59.651          -DE/DX =    0.0                 !
 ! D11   D(2,1,3,9)            -53.9887         -DE/DX =    0.0                 !
 ! D12   D(2,1,3,15)          -177.1968         -DE/DX =    0.0                 !
 ! D13   D(4,1,3,8)           -179.5508         -DE/DX =    0.0                 !
 ! D14   D(4,1,3,9)             66.8095         -DE/DX =    0.0                 !
 ! D15   D(4,1,3,15)           -56.3986         -DE/DX =    0.0                 !
 ! D16   D(5,1,3,8)            -60.0331         -DE/DX =    0.0                 !
 ! D17   D(5,1,3,9)           -173.6728         -DE/DX =    0.0                 !
 ! D18   D(5,1,3,15)            63.1191         -DE/DX =    0.0                 !
 ! D19   D(2,1,4,10)           -63.3837         -DE/DX =    0.0                 !
 ! D20   D(2,1,4,11)          -177.0703         -DE/DX =    0.0                 !
 ! D21   D(2,1,4,23)            59.7776         -DE/DX =    0.0                 !
 ! D22   D(3,1,4,10)           176.8202         -DE/DX =    0.0                 !
 ! D23   D(3,1,4,11)            63.1335         -DE/DX =    0.0                 !
 ! D24   D(3,1,4,23)           -60.0186         -DE/DX =    0.0                 !
 ! D25   D(5,1,4,10)            56.6906         -DE/DX =    0.0                 !
 ! D26   D(5,1,4,11)           -56.9961         -DE/DX =    0.0                 !
 ! D27   D(5,1,4,23)           179.8518         -DE/DX =    0.0                 !
 ! D28   D(2,1,5,12)           -59.8646         -DE/DX =    0.0                 !
 ! D29   D(2,1,5,13)           179.9628         -DE/DX =    0.0                 !
 ! D30   D(2,1,5,14)            60.259          -DE/DX =    0.0                 !
 ! D31   D(3,1,5,12)            59.1846         -DE/DX =    0.0                 !
 ! D32   D(3,1,5,13)           -60.9881         -DE/DX =    0.0                 !
 ! D33   D(3,1,5,14)           179.3081         -DE/DX =    0.0                 !
 ! D34   D(4,1,5,12)           179.6704         -DE/DX =    0.0                 !
 ! D35   D(4,1,5,13)            59.4977         -DE/DX =    0.0                 !
 ! D36   D(4,1,5,14)           -60.2061         -DE/DX =    0.0                 !
 ! D37   D(1,2,19,20)          179.3373         -DE/DX =    0.0                 !
 ! D38   D(1,2,19,21)          -61.7288         -DE/DX =    0.0                 !
 ! D39   D(1,2,19,22)           60.4134         -DE/DX =    0.0                 !
 ! D40   D(6,2,19,20)          -59.8787         -DE/DX =    0.0                 !
 ! D41   D(6,2,19,21)           59.0552         -DE/DX =    0.0                 !
 ! D42   D(6,2,19,22)         -178.8026         -DE/DX =    0.0                 !
 ! D43   D(7,2,19,20)           58.7876         -DE/DX =    0.0                 !
 ! D44   D(7,2,19,21)          177.7215         -DE/DX =    0.0                 !
 ! D45   D(7,2,19,22)          -60.1363         -DE/DX =    0.0                 !
 ! D46   D(1,3,15,16)           61.788          -DE/DX =    0.0                 !
 ! D47   D(1,3,15,17)         -179.2894         -DE/DX =    0.0                 !
 ! D48   D(1,3,15,18)          -60.3697         -DE/DX =    0.0                 !
 ! D49   D(8,3,15,16)         -177.657          -DE/DX =    0.0                 !
 ! D50   D(8,3,15,17)          -58.7343         -DE/DX =    0.0                 !
 ! D51   D(8,3,15,18)           60.1854         -DE/DX =    0.0                 !
 ! D52   D(9,3,15,16)          -59.0017         -DE/DX =    0.0                 !
 ! D53   D(9,3,15,17)           59.921          -DE/DX =    0.0                 !
 ! D54   D(9,3,15,18)          178.8407         -DE/DX =    0.0                 !
 ! D55   D(1,4,23,24)          179.9994         -DE/DX =    0.0                 !
 ! D56   D(1,4,23,25)          -60.9814         -DE/DX =    0.0                 !
 ! D57   D(1,4,23,26)           60.9815         -DE/DX =    0.0                 !
 ! D58   D(10,4,23,24)         -59.3439         -DE/DX =    0.0                 !
 ! D59   D(10,4,23,25)          59.6753         -DE/DX =    0.0                 !
 ! D60   D(10,4,23,26)        -178.3618         -DE/DX =    0.0                 !
 ! D61   D(11,4,23,24)          59.356          -DE/DX =    0.0                 !
 ! D62   D(11,4,23,25)         178.3751         -DE/DX =    0.0                 !
 ! D63   D(11,4,23,26)         -59.6619         -DE/DX =    0.0                 !
 --------------------------------------------------------------------------------
 GradGradGradGradGradGradGradGradGradGradGradGradGradGradGradGradGradGrad

                          Input orientation:                          
 ---------------------------------------------------------------------
 Center     Atomic      Atomic             Coordinates (Angstroms)
 Number     Number       Type             X           Y           Z
 ---------------------------------------------------------------------
      1         15           0       -0.523424    0.930753    2.195210
      2          6           0       -1.589788   -0.387894    1.529673
      3          6           0        0.837058    0.159742    3.129726
      4          6           0       -1.486507    2.031676    3.279402
      5          6           0        0.153992    1.910397    0.830831
      6          1           0       -1.878856   -1.016049    2.376928
      7          1           0       -0.955899   -1.003678    0.884315
      8          1           0        1.376708   -0.477943    2.422903
      9          1           0        0.375871   -0.506461    3.864232
     10          1           0       -2.247061    2.505651    2.652706
     11          1           0       -0.809441    2.827098    3.603058
     12          1           0        0.741117    1.269951    0.170262
     13          1           0        0.793211    2.702475    1.222897
     14          1           0       -0.657789    2.364170    0.260897
     15          6           0        1.782009    1.160034    3.807602
     16          1           0        1.262684    1.774450    4.545206
     17          1           0        2.568820    0.615283    4.330645
     18          1           0        2.266292    1.819596    3.085268
     19          6           0       -2.823059    0.121632    0.773025
     20          1           0       -3.395069   -0.729181    0.401119
     21          1           0       -3.483519    0.704320    1.417674
     22          1           0       -2.550382    0.733586   -0.088692
     23          6           0       -2.119878    1.316730    4.479392
     24          1           0       -2.677166    2.037837    5.078332
     25          1           0       -2.819676    0.539147    4.167433
     26          1           0       -1.367221    0.864105    5.127697
 ---------------------------------------------------------------------
                    Distance matrix (angstroms):
                    1          2          3          4          5
     1  P    0.000000
     2  C    1.821785   0.000000
     3  C    1.821727   2.957981   0.000000
     4  C    1.820724   2.987732   2.987556   0.000000
     5  C    1.811111   2.968382   2.969223   2.949821   0.000000
     6  H    2.379129   1.093609   3.053748   3.202660   3.884195
     7  H    2.376447   1.094299   3.100018   3.902738   3.118741
     8  H    2.376293   3.099365   1.094287   3.902535   3.119918
     9  H    2.379065   3.054183   1.093627   3.201971   3.884836
    10  H    2.379187   3.172667   3.904180   1.093546   3.072232
    11  H    2.379068   3.904361   3.170140   1.093557   3.074701
    12  H    2.411335   3.166950   3.162309   3.899909   1.091438
    13  H    2.412036   3.914483   3.178586   3.142658   1.090736
    14  H    2.411287   3.170531   3.914620   3.147808   1.090745
    15  C    2.822658   4.353625   1.533959   3.423733   3.474859
    16  H    3.069933   4.680359   2.189068   3.037512   3.878693
    17  H    3.771151   5.113299   2.156090   4.422325   4.444931
    18  H    3.060190   4.707679   2.190845   3.763797   3.090719
    19  C    2.822341   1.533979   4.353383   3.422947   3.473594
    20  H    3.771006   2.156189   5.113353   4.421476   4.443856
    21  H    3.068876   2.188994   4.679217   3.035781   3.876918
    22  H    3.060007   2.190791   4.707681   3.763101   3.089344
    23  C    2.813384   3.447837   3.450172   1.533715   4.339922
    24  H    3.765187   4.433908   4.435546   2.157279   5.106169
    25  H    3.052179   3.054473   3.820011   2.189425   4.675034
    26  H    3.052199   3.816125   3.057263   2.189440   4.676738
                    6          7          8          9         10
     6  H    0.000000
     7  H    1.754964   0.000000
     8  H    3.300055   2.843362   0.000000
     9  H    2.748735   3.301627   1.754970   0.000000
    10  H    3.551620   4.136387   4.699611   4.173774   0.000000
    11  H    4.173346   4.699772   4.134647   3.547646   1.753068
    12  H    4.118184   2.925598   2.921216   4.115151   4.076603
    13  H    4.722198   4.112127   3.448992   4.177092   3.365464
    14  H    4.170668   3.438010   4.109872   4.721546   2.875161
    15  C    4.492671   4.552296   2.182803   2.181201   4.402030
    16  H    4.728381   5.103159   3.096844   2.540220   4.053951
    17  H    5.124459   5.188630   2.501151   2.506966   5.438904
    18  H    5.071970   4.816388   2.551230   3.096938   4.585645
    19  C    2.181363   2.182886   4.551882   4.492573   3.090069
    20  H    2.506994   2.501674   5.188505   5.124718   4.105083
    21  H    2.540627   3.096868   5.101964   4.727212   2.509767
    22  H    3.097007   2.550921   4.816424   5.072108   3.278336
    23  C    3.149651   4.434379   4.435776   3.151382   2.183229
    24  H    4.154648   5.459244   5.460251   4.155541   2.507489
    25  H    2.551408   4.078337   4.656984   3.375907   2.547435
    26  H    3.370976   4.654470   4.079970   2.552090   3.097478
                   11         12         13         14         15
    11  H    0.000000
    12  H    4.075908   0.000000
    13  H    2.872141   1.778448   0.000000
    14  H    3.377476   1.778333   1.773498   0.000000
[...]
 0108899,0.00054024,0.00102207,0.00755657,-0.00162297,0.00327064,-0.016
 30476,0.00611486,-0.01094850,0.00003579,-0.00005275,0.00008415,-0.0000
 3279,0.00009895,-0.00028421,-0.00008780,0.00042869,-0.00043994,-0.0005
 3340,0.00040618,0.00036693,-0.00006549,0.00006028,0.00000954,0.0002842
 6,0.00023987,-0.00043039,-0.00032337,-0.00015218,-0.00002310,-0.000179
 75,0.00068010,-0.00042681,-0.00000455,0.00000924,0.00003326,-0.0000990
 6,-0.00016839,-0.00006486,0.00005895,0.00005085,0.00004984,0.49231152,
 -0.01555578,0.01100833,-0.00980725,0.02666824,-0.08560800,0.01679356,-
 0.00291921,-0.00681303,-0.00189174,0.00034726,-0.00007046,0.00053117,0
 .00060442,-0.00007134,0.00016974,0.01704580,-0.00550918,0.00920711,0.0
 1539241,-0.00539186,0.01070530,0.00003612,-0.00009373,0.00026249,0.000
 27702,-0.00010843,-0.00003041,-0.00025422,-0.00026792,-0.00039696,-0.0
 0001764,0.00020668,-0.00000506,-0.00016311,0.00001958,-0.00013377,0.00
 005722,0.00004053,0.00008934,-0.00030234,-0.00032813,-0.00008161,-0.00
 166537,0.00243203,-0.00105249,0.00011900,-0.00003829,0.00001002,-0.000
 53763,-0.00070700,-0.00040880,0.00007142,-0.00002093,0.00011046,0.0265
 6079,0.55950968,-0.01141398,-0.00280138,-0.00778964,-0.03840606,0.0239
 0494,-0.10268606,-0.00001985,-0.00101848,-0.00008809,0.00102068,0.0007
 7741,0.00025721,0.00068311,-0.00029537,0.00047948,-0.02282007,0.007595
 47,-0.01230742,0.01549191,-0.00493520,0.01140369,-0.00036090,0.0001376
 6,0.00002468,0.00015115,-0.00012742,0.00018189,-0.00016804,-0.00038385
 ,-0.00007663,-0.00009945,0.00017590,0.00038193,-0.00006164,0.00001427,
 0.00001506,-0.00001935,0.00023584,-0.00039867,-0.00004704,0.00054978,0
 .00000875,-0.00051217,0.00047635,0.00021104,0.00007896,0.00004831,0.00
 002686,-0.00006416,-0.00012242,-0.00007007,-0.00000089,-0.00001677,-0.
 00003901,-0.04899712,0.01622459,0.54309283,-0.00243011,0.00368562,-0.0
 0119511,-0.01735807,-0.01860311,-0.01085842,-0.00056280,-0.00173749,-0
 .00049678,-0.00003109,0.00020969,0.00010683,0.00018195,-0.00006538,-0.
 00006171,0.00118488,-0.00006951,0.00037275,0.00066258,-0.00056393,0.00
 067388,0.00004854,-0.00003991,0.00007830,0.00006593,-0.00001988,0.0000
 2028,0.00008360,-0.00029973,-0.00003217,0.00013892,-0.00007978,0.00003
 710,0.00000499,-0.00000650,-0.00003636,-0.00000067,-0.00000503,0.00002
 614,-0.00005108,0.00001226,0.00004001,-0.00038833,0.00064368,-0.000229
 23,0.00002660,-0.00001985,-0.00001159,-0.00012304,-0.00019230,-0.00010
 560,0.00001753,-0.00001107,0.00002592,-0.11672152,-0.11010917,-0.04609
 385,0.12851247,0.00288362,-0.00111131,0.00181436,0.00799637,0.01019457
 ,0.00514134,0.00062706,0.00103279,0.00041802,0.00013467,-0.00007324,-0
 .00002666,-0.00001115,0.00004977,0.00009214,-0.00047085,0.00074137,-0.
 00035553,-0.00053589,0.00076109,-0.00024351,-0.00004411,0.00002792,-0.
 00005866,-0.00006621,0.00002744,-0.00002582,-0.00013224,0.00029133,0.0
 0008520,-0.00012163,0.00007805,-0.00004251,-0.00002383,-0.00000046,-0.
 00000022,-0.00005717,0.00007639,-0.00010968,0.00009993,0.00022037,-0.0
 0015708,0.00023646,-0.00033508,0.00015071,-0.00001081,0.00000668,0.000
 01062,0.00008945,0.00009778,0.00006777,0.00000161,0.00000460,-0.000014
 23,-0.11162736,-0.21557383,-0.07267958,0.11763057,0.23046973,-0.001117
 50,0.00226958,-0.00128235,-0.01035530,-0.01135530,-0.00696586,-0.00047
 331,-0.00102336,-0.00010880,0.00001206,-0.00004825,0.00019483,0.000019
 62,0.00009512,0.00000474,0.00040800,-0.00055194,0.00009005,0.00065092,
 0.00017521,0.00068213,0.00000961,0.00000533,0.00001979,0.00006697,-0.0
 0004191,0.00002193,0.00001768,0.00013446,-0.00008764,-0.00004145,0.000
 03886,-0.00004140,0.00000919,-0.00001707,0.00000537,0.00007230,-0.0000
 9253,0.00012384,-0.00006501,-0.00029127,0.00011180,-0.00021549,0.00037
 913,-0.00015252,0.00001722,-0.00000344,0.00000791,-0.00008377,-0.00011
 315,-0.00004570,-0.00000325,-0.00001337,0.00001847,-0.04609553,-0.0717
 2889,-0.07598109,0.05369516,0.07669693,0.08060187,-0.00116808,0.002479
 17,0.00202426,-0.01706354,0.01269486,0.01432137,-0.00002752,-0.0001493
 2,-0.00031483,-0.00023776,0.00017923,-0.00013646,-0.00002761,-0.000393
 15,-0.00026598,0.00100983,-0.00031312,0.00000209,-0.00338652,0.0011689
 7,-0.00333637,0.00021298,-0.00009610,0.00005473,-0.00000952,0.00003936
 ,0.00003640,0.00014161,-0.00094102,-0.00024332,0.00028543,-0.00014868,
 0.00015155,0.00015263,0.00008747,-0.00007356,-0.00003716,-0.00004997,0
 .00005851,-0.00007737,0.00003042,0.00009618,0.00008156,-0.00001413,0.0
 0000786,-0.00003500,-0.00003699,-0.00005726,0.00001063,-0.00000672,-0.
 00000962,-0.00000621,0.00000122,-0.00000217,-0.14060090,0.08370305,0.0
 9456737,0.01126273,-0.00836723,-0.01027230,0.15433959,-0.00056923,-0.0
 0018124,-0.00009579,0.00514297,-0.00561330,-0.00490303,0.00008152,0.00
 013401,-0.00000790,0.00013939,0.00008838,-0.00019513,0.00003552,-0.000
 00424,0.00001348,-0.00000843,-0.00015649,-0.00024194,0.00143208,0.0004
 0504,0.00136242,-0.00004813,-0.00000107,0.00000850,0.00000681,-0.00001
 876,-0.00000911,-0.00048578,-0.00024621,-0.00049810,-0.00011875,0.0000
 5662,0.00012599,0.00005078,-0.00002175,0.00004137,-0.00000429,0.000013
 83,-0.00005129,-0.00001583,0.00005067,0.00005433,0.00000760,-0.0000733
 8,0.00001844,-0.00000231,0.00002537,0.00000649,0.00001508,0.00001634,0
 .00001600,-0.00000757,0.00000378,-0.00000070,0.08406699,-0.12234109,-0
 .08391233,0.01616992,-0.01311268,-0.01547846,-0.09379165,0.12976617,-0
 .00020849,0.00002065,0.00065986,-0.01187206,0.01062902,0.01190014,0.00
 007516,0.00017299,0.00002473,-0.00000391,-0.00043556,-0.00000649,0.000
 02773,0.00008620,0.00002302,0.00074001,-0.00013809,0.00089494,-0.00386
 442,0.00134030,-0.00140446,0.00007546,-0.00002386,-0.00001676,-0.00002
 132,0.00003008,-0.00000900,-0.00036899,-0.00015962,-0.00022688,-0.0000
 0937,0.00007905,-0.00001555,-0.00008015,0.00002867,-0.00005676,0.00002
 492,-0.00002461,0.00006068,0.00007709,-0.00013133,-0.00008655,0.000083
 95,-0.00007914,-0.00002370,-0.00002906,-0.00001012,-0.00000156,0.00001
 477,0.00002166,0.00001456,-0.00000174,0.00000062,-0.00000078,0.0963308
 8,-0.08495342,-0.14525377,0.00641531,-0.00461811,-0.00691695,-0.100981
 03,0.09278217,0.15494356,0.00094169,0.00101444,-0.00143899,0.00716761,
 0.01609256,-0.02351778,-0.00010369,0.00009248,0.00010307,-0.00012733,-
 0.00015002,0.00006788,-0.00001431,-0.00008481,0.00014679,-0.00472772,0
 .00171679,-0.00315165,0.00119532,-0.00025919,0.00064681,-0.00000232,0.
 00004025,-0.00002651,0.00007112,-0.00006255,0.00015335,-0.00000977,-0.
 00006263,0.00005223,0.00006855,-0.00004571,-0.00002845,-0.00015935,-0.
 00000653,0.00003126,0.00007687,-0.00000720,0.00009043,-0.00040949,-0.0
 0065944,0.00000840,0.00002767,-0.00009246,0.00011101,-0.00000299,0.000
 00057,-0.00000341,0.00001570,0.00002010,0.00001601,-0.00003903,-0.0000
 2228,-0.00002917,-0.06688919,-0.03933352,0.05712481,-0.00459033,-0.008
 15876,0.01382467,-0.00512009,-0.01211344,0.01363094,0.07267145,-0.0003
 4541,-0.00018389,-0.00032196,-0.00202024,-0.00575166,0.00655441,0.0000
 5769,0.00012155,0.00006262,0.00009650,0.00015434,0.00001591,-0.0001049
 4,-0.00010459,0.00013606,0.00182856,0.00042164,0.00054597,-0.00015626,
 -0.00018688,0.00008201,-0.00000470,-0.00001014,0.00001007,-0.00002260,
 0.00000609,-0.00004960,0.00006556,0.00000484,-0.00001033,-0.00003972,0
 .,0.00004541,0.00013916,0.00000737,0.00004375,0.00003822,0.00006409,-0
 .00018414,-0.00064271,-0.00002500,-0.00014652,0.00001972,-0.00006409,-
 0.00000744,-0.00000413,0.00000434,-0.00000372,0.00001880,0.00001582,0.
 00001096,0.00000410,0.00002023,-0.00000493,-0.03827918,-0.13016943,0.1
 1604915,-0.00650613,-0.01386770,0.02102906,0.00385139,0.01123451,-0.01
 472713,0.04202964,0.13833556,0.00076838,0.00213995,-0.00149500,0.00227
 763,0.00688508,-0.01191820,-0.00028015,-0.00019024,0.00002672,-0.00024
 404,-0.00018306,0.00000812,-0.00005225,0.00032093,-0.00004512,-0.00266
 331,0.00049453,-0.00007866,-0.00014866,-0.00023621,0.00067888,0.000033
 73,0.00001782,-0.00000373,0.00010075,-0.00007496,0.00012902,0.00013574
 ,-0.00004600,-0.00016314,0.00002264,-0.00007134,-0.00002341,0.00002824
 ,-0.00005034,0.00002848,0.00017213,-0.00018420,0.00021572,0.00000297,-
 0.00060730,0.00054664,0.00002855,0.00000311,0.00003405,-0.00000428,0.0
 0000371,-0.00000465,-0.00000842,-0.00000978,0.00000930,-0.00004822,-0.
 00002669,-0.00000252,0.05548618,0.11636399,-0.21126471,-0.00234833,-0.
 00612675,0.00960489,0.00454730,0.01076067,-0.01430648,-0.05778531,-0.1
 2918697,0.22777731,-0.00964413,-0.00293959,0.01462307,0.00049008,0.000
 79956,-0.00097604,0.00047453,-0.00051275,-0.00106929,-0.09396770,-0.02
 702259,0.03124327,-0.00120147,0.00213361,0.00118695,0.00020757,-0.0004
 5776,0.00035705,-0.00033574,-0.00040300,0.00002183,0.00040312,-0.00009
 156,0.00007629,-0.00028305,0.00033088,0.00020236,0.01206560,0.00952324
 ,-0.01787660,-0.00835174,-0.00877314,0.01778563,0.00012345,-0.00072884
 ,0.00072888,0.00013794,0.00013381,-0.00023556,0.00005147,-0.00002127,0
 .00028553,-0.00007232,0.00007063,0.00013628,-0.00013032,-0.00018503,0.
 00002551,0.00000424,0.00001697,-0.00003526,0.00012742,0.00001123,-0.00
 008999,-0.00038395,-0.00023808,-0.00006788,0.00003519,-0.00005871,-0.0
 0006529,0.00015126,0.00015625,-0.00021360,-0.00001879,-0.00001289,0.00
 013355,0.54966400,0.00414200,0.01340333,-0.01102470,0.00015254,0.00002
 912,0.00033615,-0.00035127,-0.00038147,-0.00002667,-0.01963313,-0.0987
 2965,0.03628194,0.00367681,-0.00523138,-0.00373716,0.00011421,-0.00035
 372,-0.00029966,-0.00017202,0.00004373,0.00002847,0.00006308,0.0001253
 2,0.00008930,0.00031816,-0.00010613,-0.00014658,-0.00718680,-0.0065897
 1,0.01178557,-0.00986387,-0.01026276,0.02100555,0.00079608,0.00163646,
 -0.00163691,0.00002556,-0.00011496,0.00022174,-0.00018106,-0.00018831,
 0.00020317,-0.00005287,-0.00050843,-0.00022238,0.00013577,0.00024122,0
 .00007546,0.00004320,0.00008424,0.00007611,-0.00010468,0.00005857,0.00
 005626,0.00031176,-0.00048665,0.00001959,-0.00010618,0.00003252,-0.000
 03286,-0.00017277,0.00023386,-0.00022401,-0.00004385,0.00007590,0.0001
 7018,-0.02062049,0.54812092,0.01222495,-0.00031696,-0.01900126,-0.0013
 0754,0.00013813,0.00113225,-0.00057744,-0.00055957,0.00154949,0.028766
 31,0.04742435,-0.13889094,0.00068879,-0.00145847,-0.00046846,0.0000632
 4,-0.00009886,-0.00032856,0.00039168,0.00039543,0.00032800,-0.00042322
 ,0.00030373,-0.00049274,0.00030040,0.00052041,-0.00010370,0.00932739,0
 .00888390,-0.01561072,-0.00339588,-0.00303258,0.00847507,0.00020191,0.
 00070236,-0.00011654,0.00022630,0.00009719,-0.00006247,-0.00009172,-0.
 00006814,0.00010189,-0.00025269,0.00025021,-0.00038501,-0.00009220,-0.
 00017012,0.00025045,-0.00008766,0.00002469,0.00004064,0.00010817,0.000
 01307,-0.00006702,0.00017375,0.00019129,-0.00010297,-0.00000575,-0.000
 01176,0.00006091,-0.00009172,0.00001338,-0.00002548,-0.00001465,-0.000
 01028,0.00006078,0.04061608,0.03926211,0.49703686,-0.00030051,-0.00218
 742,0.00036277,0.00000470,-0.00015294,0.00000414,0.00016042,0.00011343
 ,-0.00006084,-0.00767190,0.00709816,0.00868315,-0.00024230,0.00072483,
 0.00044306,-0.00002252,0.00023548,-0.00002097,0.00006625,0.00009715,-0
 .00007603,-0.00002980,-0.00007020,0.00006034,-0.00000927,-0.00018705,0
 .00001282,0.00067129,-0.00018141,-0.00050265,-0.00005376,0.00038410,-0
 .00029769,-0.00006157,-0.00020685,0.00018586,0.00001174,0.00003759,-0.
 00005391,0.00000653,-0.00000028,-0.00001179,0.00004262,0.00004355,0.00
 008592,0.00002064,0.00005607,0.00001829,-0.00000446,-0.00000878,-0.000
 01176,-0.00000446,-0.00000986,0.00000834,0.00003406,0.00007092,0.00000
 963,0.00001889,-0.00000635,0.00001078,0.00003871,-0.00005494,0.0000291
 3,-0.00000593,-0.00000023,-0.00003473,-0.11561837,0.09262707,0.0739504
 9,0.12278941,-0.00161875,-0.00228191,0.00303757,-0.00011494,-0.0001125
 2,0.00002385,0.00007797,-0.00001281,0.00011643,-0.00992855,0.01098720,
 0.01118303,-0.00078263,0.00107198,0.00088946,0.00007850,0.00036244,0.0
 0004404,0.00009462,0.00012806,-0.00010057,0.00000684,0.00007559,-0.000
 11314,-0.00016820,0.00020986,-0.00011451,0.00026282,0.00080061,-0.0006
 6214,0.00018438,0.00094594,-0.00056035,-0.00016446,-0.00032069,0.00036
 632,0.00002788,0.00004588,-0.00008512,0.00004508,0.00004089,-0.0000609
 2,0.00000701,0.00004803,-0.00002520,-0.00001303,-0.00004210,-0.0000177
 8,-0.00000739,-0.00001362,-0.00001192,0.00004427,0.00002550,0.00001036
 ,0.00003662,0.00006212,-0.00002119,0.00001839,-0.00000858,0.00000661,0
 .00005104,-0.00005370,0.00002479,-0.00003275,0.00001032,-0.00005035,0.
 09358093,-0.16880373,-0.09999853,-0.09906710,0.18076636,0.00016967,0.0
 0389518,-0.00212782,0.00007961,0.00001794,0.00020183,-0.00013317,0.000
 12282,-0.00004915,0.01444372,-0.01457123,-0.01726138,0.00095807,-0.001
 38427,-0.00075526,-0.00007412,-0.00001850,-0.00006424,-0.00003295,-0.0
 0000413,-0.00001047,-0.00000729,-0.00009475,0.00013835,0.00011327,-0.0
 0025741,0.00007403,-0.00053730,-0.00068957,0.00058972,-0.00034680,-0.0
 0016394,0.00116798,0.00016803,0.00042586,-0.00039318,-0.00002389,-0.00
 003174,0.00006397,-0.00005412,-0.00006129,0.00006923,0.00002734,-0.000
 09299,0.00002128,0.00002124,0.00006830,0.00001108,0.00002021,0.0000234
 3,0.00002083,-0.00005023,-0.00001484,0.00000289,0.00009021,-0.00005976
 ,0.00001608,-0.00002997,0.00001030,-0.00000747,0.00001326,-0.00000685,
 0.00000737,0.00001720,0.00000687,0.00001934,0.07362648,-0.09855572,-0.
 12402282,-0.08301337,0.10415878,0.13606593,-0.00106443,-0.00235171,-0.
 00077853,-0.00000821,-0.00037304,0.00020207,-0.00002364,0.00015190,0.0
 0019302,-0.00894219,-0.00761051,-0.00208980,0.00007810,0.00021859,0.00
 022915,0.00017089,0.00076743,0.00006091,0.00007934,0.00018586,-0.00023
 037,-0.00003927,0.00005022,-0.00000689,-0.00014061,-0.00001943,-0.0001
 2956,0.00059617,0.00039664,0.00014803,0.00007808,-0.00060574,0.0022066
 4,-0.00000565,0.00001510,0.00005071,0.00007903,0.00008027,-0.00010719,
 -0.00000605,-0.00001955,-0.00002606,0.00011209,-0.00015097,-0.00011908
 ,0.00012571,0.00010751,0.00006988,0.00000506,0.00005048,0.00003797,0.0
 0000615,0.00005935,0.00005470,0.00024541,0.00005782,-0.00005582,0.0000
 0749,-0.00001476,-0.00001448,0.00007722,-0.00000825,0.00003359,-0.0000
 7256,0.00002609,-0.00006861,-0.15531884,-0.11970199,-0.05114628,0.0117
 7367,0.01192521,0.00439166,0.16601008,0.00013863,-0.00070761,-0.000556
 54,-0.00028599,-0.00004275,-0.00004822,-0.00003737,0.00016186,0.000143
 67,-0.00800317,-0.00977849,-0.00316092,-0.00005350,0.00015653,0.000142
 14,0.00023196,0.00002772,-0.00058743,0.00018528,0.00013693,0.00000681,
 -0.00004448,0.00001139,-0.00004403,-0.00002319,0.00001796,0.00003122,0
 .00010916,-0.00007019,-0.00022552,-0.00077017,0.00000305,0.00258326,-0
 .00000787,-0.00001204,0.00005240,0.00006690,0.00003034,-0.00004892,-0.
 00000853,-0.00002634,-0.00001703,0.00000732,0.00003503,-0.00003918,-0.
 00003679,-0.00006235,0.00004785,-0.00000605,0.00002495,0.00000924,0.00
 003764,-0.00002888,-0.00002916,-0.00013944,0.00022818,0.00009132,0.000
 06578,-0.00004572,-0.00003966,0.00016531,-0.00011856,0.00019882,0.0000
 7808,-0.00006251,-0.00006293,-0.11941351,-0.18031818,-0.05562347,-0.01
 456193,-0.01515622,-0.00634011,0.13295463,0.19432733,0.00100160,0.0012
 9549,0.00103389,0.00009285,-0.00024187,-0.00010989,-0.00003346,-0.0001
 3502,-0.00012417,0.01905400,0.02019088,0.00787847,-0.00019975,0.000016
 82,-0.00003525,0.00015225,-0.00052224,-0.00034966,-0.00007253,-0.00002
 504,0.00010579,0.00003663,-0.00003852,0.00006778,-0.00002658,-0.000069
 43,-0.00001707,-0.00056775,-0.00042129,0.00115392,0.00266539,0.0025813
 4,-0.00450582,-0.00005417,-0.00008889,-0.00000417,-0.00011092,-0.00006
 286,0.00007931,0.00002317,0.00004534,-0.00000834,0.00003965,-0.0000435
 3,-0.00001893,0.00004407,0.00009198,-0.00007216,-0.00000653,-0.0000368
 9,-0.00000662,-0.00005647,0.00003208,0.00006072,0.00014178,-0.00021554
 ,-0.00013840,-0.00004247,0.00003380,0.00003885,-0.00022929,0.00019195,
 -0.00022301,-0.00006771,0.00007831,0.00013529,-0.05250295,-0.05698975,
 -0.07222257,-0.01213274,-0.01134897,-0.00538965,0.05317753,0.06000381,
 0.07843474,0.00065785,0.00015531,0.00032083,-0.00002326,0.00000386,-0.
 00004902,-0.00017245,0.00032614,-0.00003515,0.01247098,-0.00706859,0.0
 1035097,0.00006441,-0.00015871,-0.00015674,-0.00009146,0.00002520,-0.0
 0006094,0.00003761,0.00002284,-0.00001568,0.00004675,-0.00006662,0.000
 02624,-0.00038494,0.00017723,0.00040303,-0.00081911,-0.00178734,0.0033
 5726,0.00073258,0.00036548,-0.00070914,-0.00001616,0.00006165,-0.00007
 398,-0.00000482,-0.00002419,0.00002862,-0.00000676,0.00000531,-0.00005
 732,-0.00007068,0.00012085,0.00017306,-0.00012993,-0.00020275,-0.00002
 701,0.00001294,-0.00001143,-0.00001865,0.00006439,-0.00005822,-0.00007
 441,-0.00006157,0.00008460,0.00008066,0.00000477,0.00000728,-0.0000115
 1,0.00003311,-0.00007632,0.00009521,0.00005694,-0.00003630,-0.00005146
 ,-0.17860946,0.07578474,-0.10955271,-0.01161407,0.00545623,-0.00983674
 ,-0.01382306,0.00935129,-0.01032560,0.19164539,0.00038752,-0.00016356,
 -0.00032539,-0.00012493,0.00011422,0.00003461,0.00011106,0.00023023,0.
 00020530,0.00964246,-0.00673626,0.00815465,-0.00007797,0.00006837,0.00
 004255,-0.00007916,0.00000465,-0.00000243,0.00005871,0.00002411,0.0000
 1150,-0.00012749,0.00001170,-0.00013789,0.00046561,-0.00006134,-0.0003
 3685,-0.00181224,-0.00044767,0.00228605,0.00045244,-0.00000698,-0.0002
 1478,-0.00003230,-0.00000654,0.00000962,0.00001914,-0.00002133,0.00001
 199,-0.00000002,0.00000196,-0.00006965,-0.00010765,0.00026405,0.000211
 20,-0.00018565,-0.00021845,-0.00002012,0.00002544,-0.00005381,-0.00006
 673,0.00004498,-0.00009479,-0.00010631,-0.00001891,0.00009217,0.000013
 40,-0.00000097,0.00001622,0.00000117,0.00002938,-0.00008611,0.00010997
 ,0.00005020,-0.00005068,-0.00005287,0.07472209,-0.09201009,0.06312849,
 0.01520698,-0.00877490,0.01361760,-0.01619116,0.01126853,-0.01432196,-
 0.08245756,0.09663630,-0.00243027,0.00194227,-0.00125091,0.00028601,-0
 .00016103,-0.00007409,0.00010421,0.00023469,-0.00023729,-0.01633830,0.
 00956126,-0.01631292,0.00033569,-0.00011373,0.00006565,-0.00011714,-0.
 00008240,-0.00006223,-0.00003938,-0.00008602,-0.00002103,-0.00010999,-
 0.00019731,0.00026455,0.00042770,-0.00076853,0.00016252,0.00296119,0.0
 0199942,-0.00315639,0.00007518,-0.00032381,0.00096646,0.00007120,-0.00
 002732,-0.00000177,-0.00004027,0.00002846,-0.00001187,-0.00004671,-0.0
 0008309,0.00019248,0.00012313,-0.00012600,0.00014455,0.00019406,0.0002
 1245,0.00007527,-0.00003036,0.00003679,0.00004055,-0.00012753,-0.00001
 327,0.00002989,-0.00009831,0.00010665,0.00009703,0.00005568,-0.0000510
 7,0.00000240,0.00013302,0.00000541,0.00004533,0.00003876,-0.00001756,0
 .00003107,-0.10791629,0.06328481,-0.13713508,0.01235175,-0.00669056,0.
 01161153,-0.00608320,0.00351257,-0.00576306,0.11622016,-0.07218308,0.1
 5029736\\0.00000003,-0.00000006,0.00000001,0.00000055,-0.00000085,0.00
 000062,0.00000020,0.00000074,0.00000049,-0.00000042,0.00000015,-0.0000
 0058,-0.00000019,-0.00000051,-0.00000042,0.00000070,-0.00000046,0.0000
 0082,0.00000078,-0.00000081,0.00000087,0.00000049,0.00000070,0.0000008
 0,0.00000040,0.00000100,0.00000074,-0.00000055,-0.00000046,-0.00000086
 ,-0.00000073,0.00000049,-0.00000091,0.00000005,-0.00000059,-0.00000005
 ,-0.00000052,-0.00000009,-0.00000072,-0.00000033,-0.00000102,-0.000000
 66,-0.00000012,0.00000157,0.00000012,-0.00000042,0.00000161,-0.0000002
 7,-0.00000005,0.00000199,0.00000037,-0.00000035,0.00000126,-0.00000019
 ,0.00000029,-0.00000145,0.00000018,0.00000073,-0.00000188,0.00000061,0
 .00000017,-0.00000148,-0.00000011,0.00000026,-0.00000188,0.,-0.0000003
 0,0.00000041,-0.00000022,-0.00000054,0.00000051,-0.00000066,0.00000003
 ,0.00000008,0.00000005,-0.00000018,0.00000101,-0.00000002\\\@


 RESEARCH IS WHAT I AM DOING WHEN I DON'T KNOW WHAT I AM DOING.
     -- WERNER VON BRAUN
 Job cpu time:       0 days  1 hours 18 minutes  4.7 seconds.
 File lengths (MBytes):  RWF=    320 Int=      0 D2E=      0 Chk=      8 Scr=      2
 Normal termination of Gaussian 09 at Fri Mar 26 17:37:53 2021.
