 Entering Gaussian System, Link 0=g09
 Initial command:
 /apps/gaussian/g09_e01/g09/l1.exe "/rds/general/ephemeral/user/fdp18/ephemeral/gaussian/Gau-2108668.inp" -scrdir="/rds/general/ephemeral/user/fdp18/ephemeral/gaussian/"
 Entering Link 1 = /apps/gaussian/g09_e01/g09/l1.exe PID=   2108670.
  
 Copyright (c) 1988,1990,1992,1993,1995,1998,2003,2009,2015,
            Gaussian, Inc.  All Rights Reserved.
  
 This is part of the Gaussian(R) 09 program.  It is based on
 the Gaussian(R) 03 system (copyright 2003, Gaussian, Inc.),
 the Gaussian(R) 98 system (copyright 1998, Gaussian, Inc.),
 the Gaussian(R) 94 system (copyright 1995, Gaussian, Inc.),
 the Gaussian 92(TM) system (copyright 1992, Gaussian, Inc.),
 the Gaussian 90(TM) system (copyright 1990, Gaussian, Inc.),
 the Gaussian 88(TM) system (copyright 1988, Gaussian, Inc.),
 the Gaussian 86(TM) system (copyright 1986, Carnegie Mellon
 University), and the Gaussian 82(TM) system (copyright 1983,
 Carnegie Mellon University). Gaussian is a federally registered
 trademark of Gaussian, Inc.
  
 This software contains proprietary and confidential information,
 including trade secrets, belonging to Gaussian, Inc.
  
 This software is provided under written license and may be
 used, copied, transmitted, or stored only in accord with that
 written license.
  
 The following legend is applicable only to US Government
 contracts under FAR:
  
                    RESTRICTED RIGHTS LEGEND
  
 Use, reproduction and disclosure by the US Government is
 subject to restrictions as set forth in subparagraphs (a)
 and (c) of the Commercial Computer Software - Restricted
 Rights clause in FAR 52.227-19.
  
 Gaussian, Inc.
 340 Quinnipiac St., Bldg. 40, Wallingford CT 06492
  
  
 ---------------------------------------------------------------
 Warning -- This program may not be used in any manner that
 competes with the business of Gaussian, Inc. or will provide
 assistance to any competitor of Gaussian, Inc.  The licensee
 of this program is prohibited from giving any competitor of
 Gaussian, Inc. access to this program.  By using this program,
 the user acknowledges that Gaussian, Inc. is engaged in the
 business of creating and licensing software in the field of
 computational chemistry and represents and warrants to the
 licensee that it is not a competitor of Gaussian, Inc. and that
 it will not use this program in any manner prohibited above.
 ---------------------------------------------------------------
  

 Cite this work as:
 Gaussian 09, Revision E.01,
 M. J. Frisch, G. W. Trucks, H. B. Schlegel, G. E. Scuseria, 
 M. A. Robb, J. R. Cheeseman, G. Scalmani, V. Barone, B. Mennucci, 
 G. A. Petersson, H. Nakatsuji, M. Caricato, X. Li, H. P. Hratchian, 
 A. F. Izmaylov, J. Bloino, G. Zheng, J. L. Sonnenberg, M. Hada, 
 M. Ehara, K. Toyota, R. Fukuda, J. Hasegawa, M. Ishida, T. Nakajima, 
 Y. Honda, O. Kitao, H. Nakai, T. Vreven, J. A. Montgomery, Jr., 
 J. E. Peralta, F. Ogliaro, M. Bearpark, J. J. Heyd, E. Brothers, 
 K. N. Kudin, V. N. Staroverov, T. Keith, R. Kobayashi, J. Normand, 
 K. Raghavachari, A. Rendell, J. C. Burant, S. S. Iyengar, J. Tomasi, 
 M. Cossi, N. Rega, J. M. Millam, M. Klene, J. E. Knox, J. B. Cross, 
 V. Bakken, C. Adamo, J. Jaramillo, R. Gomperts, R. E. Stratmann, 
 O. Yazyev, A. J. Austin, R. Cammi, C. Pomelli, J. W. Ochterski, 
 R. L. Martin, K. Morokuma, V. G. Zakrzewski, G. A. Voth, 
 P. Salvador, J. J. Dannenberg, S. Dapprich, A. D. Daniels, 
 O. Farkas, J. B. Foresman, J. V. Ortiz, J. Cioslowski, 
 and D. J. Fox, Gaussian, Inc., Wallingford CT, 2013.
 
 ******************************************
 Gaussian 09:  ES64L-G09RevE.01 30-Nov-2015
                23-Mar-2021 
 ******************************************
 %nprocshared=48
 Will use up to   48 processors via shared memory.
 %mem=200GB
 %chk=P2228.chk
 ----------------------------------------------------------------------
 # RMP2=(semidirect,full)/cc-pVTZ int=ultrafine symmetry=none scf=conve
 r=11 Density=current pop=(minimal,CHELPG,Dipole)
 ----------------------------------------------------------------------
 1/30=1,38=1/1;
 2/12=2,15=3,17=6,18=5,40=1/2;
 3/5=16,6=1,11=1,16=1,25=1,30=1,71=1,75=-5,116=1/1,2,3;
 4//1;
 5/5=2,6=11,38=5/2;
 8/6=4,10=90/1;
 9/15=1,16=-2/6;
 10/5=1,13=10,31=1/2;
 6/7=2,8=2,9=2,10=2,15=24,20=3,22=-1/1,2;
 99/5=1,9=1/99;
 -------------------
 Title Card Required
 -------------------
 Symbolic Z-matrix:
 Charge =  1 Multiplicity = 1
 C                    -5.23792   0.07473  -0.04887 
 H                    -5.49622   1.13411  -0.13172 
 H                    -5.50232  -0.38445  -1.00547 
 C                    -2.87343   0.80797   1.61949 
 H                    -3.31004   0.24721   2.45055 
 H                    -1.79121   0.66442   1.68047 
 C                    -2.88322  -1.74973   0.14743 
 H                    -1.80039  -1.73674   0.29851 
 H                    -3.31944  -2.18377   1.05138 
 C                    -2.69721   0.82054  -1.35974 
 H                    -3.0963    1.83938  -1.37455 
 H                    -3.09385   0.31858  -2.24754 
 C                    -1.16142   0.83281  -1.3764 
 H                    -0.77909  -0.19297  -1.35312 
 H                    -0.78191   1.33095  -0.47821 
 C                    -5.98736  -0.59011   1.11199 
 H                    -5.75525  -0.11976   2.06933 
 H                    -7.0621   -0.49466   0.9525 
 H                    -5.76062  -1.6553    1.18649 
 C                    -3.25932  -2.56292  -1.09699 
 H                    -2.79991  -2.15778  -2.0005 
 H                    -2.90659  -3.58843  -0.98113 
 H                    -4.33995  -2.60287  -1.24672 
 C                    -3.24051   2.29471   1.69825 
 H                    -2.88143   2.70809   2.6415 
 H                    -2.78111   2.86934   0.89185 
 H                    -4.3204    2.45058   1.66201 
 C                    -0.61356   1.54621  -2.61668 
 H                    -0.99938   2.5721   -2.64297 
 H                    -0.99448   1.04959  -3.51682 
 C                     0.91584   1.57363  -2.65552 
 H                     1.29851   0.54596  -2.62646 
 H                     1.29328   2.06783  -1.75179 
 C                     1.47141   2.28576  -3.89104 
 H                     1.08734   3.31287  -3.92057 
 H                     1.09352   1.79178  -4.79464 
 C                     3.00065   2.31575  -3.93229 
 H                     3.38507   1.28841  -3.90237 
 H                     3.37877   2.80929  -3.0281 
 C                     3.56007   3.02764  -5.16661 
 H                     3.17504   4.05373  -5.19565 
 H                     3.18161   2.53384  -6.06932 
 C                     5.08901   3.05275  -5.1987 
 H                     5.50012   2.03876  -5.20377 
 H                     5.46031   3.56609  -6.08878 
 H                     5.49341   3.57003  -4.32344 
 P                    -3.42207  -0.01022   0.08667 
 
                          Input orientation:                          
 ---------------------------------------------------------------------
 Center     Atomic      Atomic             Coordinates (Angstroms)
 Number     Number       Type             X           Y           Z
 ---------------------------------------------------------------------
      1          6           0       -5.237916    0.074732   -0.048870
      2          1           0       -5.496220    1.134108   -0.131718
      3          1           0       -5.502322   -0.384455   -1.005473
      4          6           0       -2.873427    0.807972    1.619485
      5          1           0       -3.310039    0.247212    2.450545
      6          1           0       -1.791206    0.664424    1.680466
      7          6           0       -2.883219   -1.749726    0.147435
      8          1           0       -1.800386   -1.736739    0.298506
      9          1           0       -3.319436   -2.183769    1.051376
     10          6           0       -2.697210    0.820540   -1.359738
     11          1           0       -3.096302    1.839379   -1.374546
     12          1           0       -3.093846    0.318581   -2.247542
     13          6           0       -1.161420    0.832807   -1.376399
     14          1           0       -0.779091   -0.192968   -1.353121
     15          1           0       -0.781912    1.330949   -0.478209
     16          6           0       -5.987356   -0.590115    1.111988
     17          1           0       -5.755246   -0.119760    2.069329
     18          1           0       -7.062099   -0.494662    0.952500
     19          1           0       -5.760619   -1.655304    1.186489
     20          6           0       -3.259322   -2.562917   -1.096992
     21          1           0       -2.799914   -2.157784   -2.000497
     22          1           0       -2.906592   -3.588434   -0.981128
     23          1           0       -4.339954   -2.602868   -1.246722
     24          6           0       -3.240509    2.294711    1.698254
     25          1           0       -2.881430    2.708093    2.641500
     26          1           0       -2.781113    2.869345    0.891846
     27          1           0       -4.320401    2.450576    1.662011
     28          6           0       -0.613557    1.546205   -2.616676
     29          1           0       -0.999377    2.572104   -2.642973
     30          1           0       -0.994477    1.049593   -3.516823
     31          6           0        0.915845    1.573630   -2.655516
     32          1           0        1.298511    0.545956   -2.626461
     33          1           0        1.293281    2.067826   -1.751787
     34          6           0        1.471406    2.285763   -3.891044
     35          1           0        1.087345    3.312866   -3.920574
     36          1           0        1.093518    1.791782   -4.794639
     37          6           0        3.000648    2.315749   -3.932290
     38          1           0        3.385069    1.288410   -3.902371
     39          1           0        3.378770    2.809289   -3.028104
     40          6           0        3.560070    3.027639   -5.166605
     41          1           0        3.175037    4.053735   -5.195646
     42          1           0        3.181613    2.533836   -6.069319
     43          6           0        5.089009    3.052746   -5.198702
     44          1           0        5.500123    2.038763   -5.203774
     45          1           0        5.460308    3.566085   -6.088775
     46          1           0        5.493407    3.570026   -4.323441
     47         15           0       -3.422074   -0.010216    0.086666
 ---------------------------------------------------------------------
                    Distance matrix (angstroms):
                    1          2          3          4          5
     1  C    0.000000
     2  H    1.093555   0.000000
     3  H    1.093550   1.752004   0.000000
     4  C    2.985274   3.170508   3.901715   0.000000
     5  H    3.161256   3.497722   4.141156   1.093501   0.000000
     6  H    3.901045   4.151113   4.699659   1.093401   1.753265
     7  C    2.985260   3.901563   3.170625   2.951075   3.078027
     8  H    3.901117   4.699579   4.151309   3.061365   3.293385
     9  H    3.161002   4.140822   3.497592   3.077692   2.804894
    10  C    2.954623   3.072591   3.073463   2.984456   3.901605
    11  H    3.075371   2.793140   3.297057   3.174539   4.148736
    12  H    3.080691   3.303512   2.799599   3.904098   4.703600
    13  C    4.353715   4.520011   4.523576   3.450638   4.427752
    14  H    4.653371   5.050175   4.739878   3.771540   4.589917
    15  H    4.649558   4.731120   5.050039   3.008032   4.017899
    16  C    1.533385   2.181963   2.182016   3.450906   3.108195
    17  H    2.189114   2.546348   3.096520   3.060707   2.501806
    18  H    2.157451   2.506073   2.505734   4.436970   4.107612
    19  H    2.189144   3.096514   2.546855   3.819829   3.350037
    20  C    3.459853   4.427579   3.128118   4.346384   4.525971
    21  H    3.838858   4.647467   3.381979   4.680319   5.084881
    22  H    4.441055   5.452529   4.123578   5.108099   5.162493
    23  H    3.067690   4.067576   2.516080   4.690381   4.780529
    24  C    3.459825   3.127944   4.427626   1.533410   2.182437
    25  H    4.441364   4.123747   5.452829   2.157554   2.505216
    26  H    3.838058   3.380907   4.646720   2.187976   3.095947
    27  H    3.068156   2.516565   4.068145   2.189450   2.549006
    28  C    5.490316   5.494109   5.497586   4.857681   5.885162
    29  H    5.561606   5.347507   5.630201   4.979234   6.057080
    30  H    5.566312   5.633095   5.355749   5.474531   6.450979
    31  C    6.849093   6.904875   6.910109   5.763718   6.759389
    32  H    7.042081   7.262095   7.052985   5.958337   6.863233
    33  H    7.037676   7.042284   7.262980   5.505830   6.493442
    34  C    8.041516   8.000416   8.005590   7.171288   8.199614
    35  H    8.092251   7.902261   8.098870   7.256339   8.326246
    36  H    8.096767   8.099383   7.911946   7.605624   8.617987
    37  C    9.379609   9.382824   9.389242   8.221944   9.211091
    38  H    9.522519   9.649814   9.496116   8.360053   9.288063
    39  H    9.518452   9.484763   9.652193   8.043340   9.017760
    40  C   10.597898  10.533372  10.539657   9.610818  10.627801
    41  H   10.634827  10.457451  10.609036   9.672895  10.724275
    42  H   10.638679  10.607503  10.467555   9.937798  10.952547
    43  C   11.917833  11.891281  11.898480  10.720405  11.701539
    44  H   12.072114  12.143463  12.022958  10.871433  11.807507
    45  H   12.771923  12.706162  12.713221  11.682277  12.682819
    46  H   12.068568  12.011500  12.147135  10.627851  11.594337
    47  P    1.822874   2.378918   2.379129   1.822081   2.380493
                    6          7          8          9         10
     6  H    0.000000
     7  C    3.061175   0.000000
     8  H    2.770466   1.093398   0.000000
     9  H    3.292939   1.093522   1.753329   0.000000
    10  C    3.176170   2.985370   3.177065   3.902117   0.000000
    11  H    3.523762   3.904293   4.155373   4.703255   1.094315
    12  H    4.152797   3.171461   3.518485   4.146746   1.094294
    13  C    3.125605   3.457764   3.133074   4.432929   1.535929
    14  H    3.310914   3.017038   2.480755   4.024705   2.169430
    15  H    2.474431   3.781201   3.324348   4.596945   2.169326
    16  C    4.416413   3.451192   4.416697   3.108247   4.350222
    17  H    4.059528   3.820864   4.625079   3.351049   4.689802
    18  H    5.445707   4.436930   5.445740   4.107357   5.111600
    19  H    4.624001   3.060715   4.059383   2.501380   4.690155
    20  C    4.503928   1.533405   2.181394   2.182396   3.439882
    21  H    4.746772   2.187936   2.541997   3.095886   3.048203
    22  H    5.139550   2.157557   2.507973   2.504915   4.430152
    23  H    5.073435   2.189429   3.096339   2.549187   3.798829
    24  C    2.181428   4.346282   4.503981   4.525646   3.437975
    25  H    2.507739   5.108083   5.139534   5.162428   4.427945
    26  H    2.542344   4.679785   4.746566   5.084211   3.045369
    27  H    3.096369   4.690625   5.073779   4.780372   3.797727
    28  C    4.542007   4.863624   4.548030   5.889746   2.539310
    29  H    4.791489   5.478453   5.278261   6.453621   2.756321
    30  H    5.272091   4.983003   4.792690   6.060405   2.757677
    31  C    5.191871   5.773570   5.202182   6.767326   3.911566
    32  H    5.301888   5.518289   4.834179   6.504101   4.200687
    33  H    4.823273   5.968576   5.314997   6.871022   4.199219
    34  C    6.656960   7.180337   6.666144   8.207095   5.092323
    35  H    6.831687   7.612089   7.185968   8.622819   5.205038
    36  H    7.177712   7.265040   6.838513   8.333970   5.206867
    37  C    7.562525   8.233598   7.574446   9.220958   6.428006
    38  H    7.638799   8.057458   7.327198   9.030284   6.608933
    39  H    7.314351   8.371449   7.652213   9.297245   6.607276
    40  C    9.005739   9.621757   9.016719  10.637184   7.649646
    41  H    9.134107   9.946413   9.405856  10.959468   7.723407
    42  H    9.395893   9.683962   9.143704  10.734232   7.725031
    43  C   10.018204  10.733189  10.031063  11.712666   8.963571
    44  H   10.121514  10.642768   9.890750  11.607812   9.135477
    45  H   11.016588  11.694555  11.028825  12.693562   9.820739
    46  H    9.876994  10.883766  10.135264  11.817827   9.133970
    47  P    2.378038   1.822073   2.378157   2.380237   1.818700
                   11         12         13         14         15
    11  H    0.000000
    12  H    1.753555   0.000000
    13  C    2.181045   2.181189   0.000000
    14  H    3.082266   2.533725   1.094958   0.000000
    15  H    2.533441   3.082283   1.094951   1.757215   0.000000
    16  C    4.521447   4.525988   5.613059   5.775856   5.771989
    17  H    4.771633   5.090242   5.820967   6.039921   5.773089
    18  H    5.156592   5.162234   6.481046   6.699485   6.694814
    19  H    5.086285   4.774983   5.823377   5.779591   6.039573
    20  C    4.414048   3.107117   4.001275   3.440030   4.656463
    21  H    4.056720   2.505955   3.466669   2.891941   4.308243
    22  H    5.445358   4.111403   4.769616   4.024155   5.382149
    23  H    4.614820   3.330058   4.682281   4.301009   5.359589
    24  C    3.109699   4.415417   3.989144   4.643062   3.422065
    25  H    4.114543   5.445881   4.755906   5.365910   4.004633
    26  H    2.509324   4.057087   3.451931   4.292521   2.870630
    27  H    3.330564   4.618922   4.672073   5.349788   4.284274
    28  C    2.791570   2.791980   1.532116   2.156084   2.155858
    29  H    2.557907   3.101859   2.157689   3.059063   2.504788
    30  H    3.103350   2.559844   2.157842   2.504387   3.059007
    31  C    4.220051   4.221281   2.549508   2.773068   2.771631
    32  H    4.749170   4.414530   2.774202   2.546337   3.091822
    33  H    4.411682   4.748948   2.773399   3.092709   2.543897
    34  C    5.234117   5.235688   3.919987   4.201178   4.199590
    35  H    5.114325   5.408062   4.204814   4.729299   4.389987
    36  H    5.408686   5.117816   4.205798   4.392031   4.728760
    37  C    6.628860   6.630981   5.104362   5.218448   5.216155
    38  H    6.978656   6.756875   5.220984   5.102291   5.393554
    39  H    6.752891   6.979087   5.219956   5.395083   5.098895
    40  C    7.752352   7.754645   6.440142   6.613871   6.611553
    41  H    7.670324   7.870298   6.615579   6.959498   6.732401
    42  H    7.869904   7.674290   6.616565   6.735366   6.958231
    43  C    9.115687   9.118340   7.655456   7.730314   7.727571
    44  H    9.412824   9.249575   7.776843   7.696536   7.892777
    45  H    9.920738   9.923452   8.574648   8.688325   8.685597
    46  H    9.245227   9.413935   7.775870   7.894755   7.692783
    47  P    2.379553   2.379993   2.821667   3.015252   3.014675
                   16         17         18         19         20
    16  C    0.000000
    17  H    1.091609   0.000000
    18  H    1.090698   1.759467   0.000000
    19  H    1.091599   1.771251   1.759458   0.000000
    20  C    4.026624   4.714259   4.789489   3.506355   0.000000
    21  H    4.722810   5.426879   5.445400   4.378943   1.091563
    22  H    4.781439   5.426953   5.529791   4.071981   1.090655
    23  H    3.511213   4.377793   4.085484   2.972655   1.091686
    24  C    4.026301   3.505891   4.789709   4.713330   5.604490
    25  H    4.781669   4.072217   5.530674   5.426419   6.473227
    26  H    4.721897   4.377976   5.444912   5.425561   5.804621
    27  H    3.510992   2.971753   4.085920   4.377053   5.820059
    28  C    6.880735   7.153394   7.647735   7.155835   5.118046
    29  H    6.998521   7.215969   7.686942   7.430019   5.819437
    30  H    7.003097   7.432186   7.692568   7.221753   4.902585
    31  C    8.156596   8.348364   8.996844   8.352376   6.080464
    32  H    8.267437   8.499947   9.153778   8.319582   5.725226
    33  H    8.262779   8.310727   9.148327   8.500156   6.526770
    34  C    9.430489   9.671457  10.198598   9.675512   7.327770
    35  H    9.518998   9.720231  10.230227   9.882277   7.835238
    36  H    9.523678   9.882995  10.235795   9.728076   7.182145
    37  C   10.708548  10.891134  11.533363  10.896373   8.427783
    38  H   10.794211  11.008610  11.657291  10.872237   8.176234
    39  H   10.789838  10.862476  11.652169  11.010168   8.755230
    40  C   11.985917  12.208193  12.754628  12.213394   9.711858
    41  H   12.054087  12.245320  12.778363  12.376215  10.098516
    42  H   12.058202  12.375242  12.783246  12.253944   9.601384
    43  C   13.258247  13.434543  14.073764  13.440641  10.865281
    44  H   13.370191  13.573524  14.217150  13.464245  10.713029
    45  H   14.148286  14.350218  14.929163  14.356238  11.769219
    46  H   13.366322  13.454152  14.212599  13.576321  11.163926
    47  P    2.822807   3.063763   3.772816   3.063448   2.818477
                   21         22         23         24         25
    21  H    0.000000
    22  H    1.759901   0.000000
    23  H    1.771440   1.759661   0.000000
    24  C    5.805136   6.473175   5.819617   0.000000
    25  H    6.725440   7.264319   6.741800   1.090658   0.000000
    26  H    5.799830   6.725079   6.078533   1.091578   1.759930
    27  H    6.079706   6.742009   5.830815   1.091684   1.759645
    28  C    4.345040   5.856411   5.742614   5.106835   5.843086
    29  H    5.101622   6.659687   6.315798   4.893452   5.611263
    30  H    3.980718   5.621141   5.448490   5.813089   6.651027
    31  C    5.306540   6.637884   6.859392   6.062223   6.615488
    32  H    4.949659   6.122352   6.603867   6.508764   7.063863
    33  H    5.888283   7.087039   7.335107   5.701711   6.094188
    34  C    6.446973   7.882935   8.041334   7.310436   7.861277
    35  H    6.980364   8.498224   8.461735   7.165067   7.692706
    36  H    6.210081   7.713006   7.837300   7.822684   8.481509
    37  C    7.575675   8.858003   9.235232   8.405683   8.829920
    38  H    7.331261   8.479520   9.048231   8.733723   9.170974
    39  H    7.993993   9.199279   9.593928   8.149730   8.446582
    40  C    8.795581  10.154228  10.463196   9.690787  10.127267
    41  H    9.191952  10.637251  10.787930   9.580149   9.995619
    42  H    8.622371  10.021882  10.306170  10.081469  10.614576
    43  C    9.980644  11.217078  11.683726  10.840825  11.185502
    44  H    9.836798  10.962159  11.577137  11.140114  11.499859
    45  H   10.849330  12.135906  12.551757  11.745571  12.105307
    46  H   10.343261  11.531461  12.011070  10.684967  10.926629
    47  P    3.058657   3.769556   3.056512   2.818311   3.769440
                   26         27         28         29         30
    26  H    0.000000
    27  H    1.771420   0.000000
    28  C    4.331135   5.732865   0.000000
    29  H    3.969620   5.438461   1.096365   0.000000
    30  H    5.093126   6.312277   1.096352   1.755470   0.000000
    31  C    5.284898   6.843123   1.530140   2.159903   2.160045
    32  H    5.866852   7.320569   2.157915   3.063631   2.510814
    33  H    4.922592   6.581332   2.157811   2.510934   3.063655
    34  C    6.426549   8.025498   2.553043   2.782884   2.783655
    35  H    6.190401   7.820007   2.777464   2.556442   3.101516
    36  H    6.964913   8.451795   2.778117   3.101415   2.558003
    37  C    7.550333   9.214778   3.922437   4.210494   4.211507
    38  H    7.969045   9.575345   4.208144   4.738915   4.402965
    39  H    7.301628   9.022366   4.207532   4.401449   4.739268
    40  C    8.771573  10.443410   5.110376   5.231137   5.232432
    41  H    8.598608  10.284900   5.224197   5.112446   5.406307
    42  H    9.171940  10.773143   5.224890   5.405737   5.114484
    43  C    9.953253  11.660574   6.438617   6.620515   6.621944
    44  H   10.316265  11.989632   6.656784   7.006115   6.782631
    45  H   10.822918  12.529218   7.281979   7.388442   7.389988
    46  H    9.806011  11.549443   6.656118   6.780565   7.006843
    47  P    3.057944   3.056829   4.197413   4.470880   4.472310
                   31         32         33         34         35
    31  C    0.000000
    32  H    1.096992   0.000000
    33  H    1.097001   1.755326   0.000000
    34  C    1.530461   2.157775   2.157694   0.000000
    35  H    2.157481   3.061880   2.509217   1.096957   0.000000
    36  H    2.157546   2.509003   3.061870   1.096951   1.754345
    37  C    2.554858   2.781120   2.780497   1.530092   2.157570
    38  H    2.780839   2.555955   3.099690   2.157996   3.062400
    39  H    2.780589   3.100237   2.554998   2.157958   2.510124
    40  C    3.925766   4.210194   4.209579   2.557333   2.783581
    41  H    4.207984   4.735670   4.398296   2.780300   2.556004
    42  H    4.208296   4.398978   4.735403   2.780509   3.099993
    43  C    5.105965   5.221906   5.221000   3.922408   4.208871
    44  H    5.265508   5.150200   5.441928   4.244388   4.768915
    45  H    6.034011   6.199142   6.198255   4.730812   4.887538
    46  H    5.265135   5.442600   5.148890   4.244148   4.431909
    47  P    5.370817   5.473053   5.471082   6.711174   6.887358
                   36         37         38         39         40
    36  H    0.000000
    37  C    2.157622   0.000000
    38  H    2.510126   1.097315   0.000000
    39  H    3.062408   1.097320   1.754268   0.000000
    40  C    2.783807   1.530775   2.157274   2.157252   0.000000
    41  H    3.099994   2.155707   3.060016   2.507667   1.096343
    42  H    2.556482   2.155737   2.507617   3.060022   1.096340
    43  C    4.209187   2.551121   2.774306   2.774110   1.529482
    44  H    4.432444   2.817937   2.594250   3.134867   2.177857
    45  H    4.887924   3.501956   3.778199   3.777996   2.179731
    46  H    4.768984   2.817811   3.134990   2.593898   2.177821
    47  P    6.889478   7.925496   7.996002   7.993928   9.250717
                   41         42         43         44         45
    41  H    0.000000
    42  H    1.753123   0.000000
    43  C    2.159925   2.159954   0.000000
    44  H    3.076720   2.523836   1.094168   0.000000
    45  H    2.501589   2.501673   1.092524   1.765652   0.000000
    46  H    2.523798   3.076714   1.094166   1.766296   1.765649
    47  P    9.377654   9.379608  10.476421  10.573205  11.393977
                   46         47
    46  H    0.000000
    47  P   10.571328   0.000000
 Symmetry turned off by external request.
 Stoichiometry    C14H32P
 Rotational constants (GHZ):      1.1289714      0.1344385      0.1275854
 Standard basis: CC-pVTZ (5D, 7F)
   902 basis functions,  1367 primitive gaussians,  1009 cartesian basis functions
    65 alpha electrons       65 beta electrons
       nuclear repulsion energy      1160.5240587437 Hartrees.
 NAtoms=   47 NActive=   47 NUniq=   47 SFac= 1.00D+00 NAtFMM=   60 NAOKFM=F Big=F
 Integral buffers will be    131072 words long.
 Raffenetti 1 integral format.
 Two-electron integral symmetry is turned off.
 One-electron integrals computed using PRISM.
 NBasis=   902 RedAO= T EigKep=  1.85D-04  NBF=   902
 NBsUse=   902 1.00D-06 EigRej= -1.00D+00 NBFU=   902
 ExpMin= 9.71D-02 ExpMax= 3.12D+05 ExpMxC= 9.87D+02 IAcc=3 IRadAn=         5 AccDes= 0.00D+00
 Harris functional with IExCor=  205 and IRadAn=       5 diagonalized for initial guess.
 HarFok:  IExCor=  205 AccDes= 0.00D+00 IRadAn=         5 IDoV= 1 UseB2=F ITyADJ=14
 ICtDFT=  3500011 ScaDFX=  1.000000  1.000000  1.000000  1.000000
 FoFCou: FMM=F IPFlag=           0 FMFlag=      100000 FMFlg1=           0
         NFxFlg=           0 DoJE=T BraDBF=F KetDBF=T FulRan=T
         wScrn=  0.000000 ICntrl=     500 IOpCl=  0 I1Cent=   200000004 NGrid=           0
         NMat0=    1 NMatS0=      1 NMatT0=    0 NMatD0=    1 NMtDS0=    0 NMtDT0=    0
 Symmetry not used in FoFCou.
 Requested convergence on RMS density matrix=1.00D-11 within 128 cycles.
 Requested convergence on MAX density matrix=1.00D-09.
 Requested convergence on             energy=1.00D-09.
 No special actions if energy rises.
 Integral accuracy reduced to 1.0D-05 until final iterations.
 Initial convergence to 1.0D-05 achieved.  Increase integral accuracy.
 SCF Done:  E(RHF) =  -889.576612245     A.U. after   17 cycles
            NFock= 17  Conv=0.31D-11     -V/T= 2.0009
 Range of M.O.s used for correlation:     1   902
 NBasis=   902 NAE=    65 NBE=    65 NFC=     0 NFV=     0
 NROrb=    902 NOA=    65 NOB=    65 NVA=   837 NVB=   837

 **** Warning!!: The largest alpha MO coefficient is  0.16260791D+02

 Disk-based method using ON**2 memory for 65 occupieds at a time.
 Estimated scratch disk usage= 86847860408 words.
 Actual    scratch disk usage= 78500105912 words.
 JobTyp=1 Pass  1:  I=   1 to  65 NPSUse= 48 ParTrn=T ParDer=T DoDerP=T.
 (rs|ai) integrals will be sorted in core.
 Spin components of T(2) and E(2):
     alpha-alpha T2 =       0.1024150372D+00 E2=     -0.3153435730D+00
     alpha-beta  T2 =       0.6372461204D+00 E2=     -0.2257370976D+01
     beta-beta   T2 =       0.1024150372D+00 E2=     -0.3153435730D+00
 ANorm=    0.1357231076D+01
 E2 =    -0.2888058122D+01 EUMP2 =    -0.89246467036716D+03
          Differentiating once with respect to electric field.
                with respect to dipole field.
          Electric field/nuclear overlap derivatives assumed to be zero.
          There are     1 degrees of freedom in the 1st order CPHF.  IDoFFX=0 NUNeed=     1.
 LinEq1:  Iter=  0 NonCon=     1 RMS=1.37D-03 Max=2.57D-02 NDo=     1
 AX will form     1 AO Fock derivatives at one time.
 LinEq1:  Iter=  1 NonCon=     1 RMS=3.60D-04 Max=7.01D-03 NDo=     1
 LinEq1:  Iter=  2 NonCon=     1 RMS=8.29D-05 Max=2.38D-03 NDo=     1
 LinEq1:  Iter=  3 NonCon=     1 RMS=1.28D-05 Max=3.02D-04 NDo=     1
 LinEq1:  Iter=  4 NonCon=     1 RMS=3.55D-06 Max=7.79D-05 NDo=     1
 LinEq1:  Iter=  5 NonCon=     1 RMS=9.56D-07 Max=2.10D-05 NDo=     1
 LinEq1:  Iter=  6 NonCon=     1 RMS=2.14D-07 Max=5.28D-06 NDo=     1
 LinEq1:  Iter=  7 NonCon=     1 RMS=5.06D-08 Max=9.64D-07 NDo=     1
 LinEq1:  Iter=  8 NonCon=     1 RMS=1.58D-08 Max=4.89D-07 NDo=     1
 LinEq1:  Iter=  9 NonCon=     1 RMS=3.79D-09 Max=9.09D-08 NDo=     1
 LinEq1:  Iter= 10 NonCon=     1 RMS=1.13D-09 Max=3.59D-08 NDo=     1
 LinEq1:  Iter= 11 NonCon=     1 RMS=3.33D-10 Max=8.63D-09 NDo=     1
 LinEq1:  Iter= 12 NonCon=     1 RMS=8.58D-11 Max=1.80D-09 NDo=     1
 LinEq1:  Iter= 13 NonCon=     0 RMS=2.19D-11 Max=4.60D-10 NDo=     1
 Linear equations converged to 1.000D-10 1.000D-09 after    13 iterations.
 End of Minotr F.D. properties file   721 does not exist.
 End of Minotr F.D. properties file   722 does not exist.
 End of Minotr F.D. properties file   788 does not exist.

 **********************************************************************

            Population analysis using the MP2 density.

 **********************************************************************

 Alpha  occ. eigenvalues --  -80.16202 -11.39746 -11.39714 -11.39711 -11.39163
 Alpha  occ. eigenvalues --  -11.36734 -11.36713 -11.36713 -11.36458 -11.33198
 Alpha  occ. eigenvalues --  -11.31198 -11.29644 -11.28528 -11.27885 -11.26644
 Alpha  occ. eigenvalues --   -7.70133  -5.59645  -5.59633  -5.59631  -1.25710
 Alpha  occ. eigenvalues --   -1.20680  -1.18405  -1.17894  -1.15892  -1.11738
 Alpha  occ. eigenvalues --   -1.07125  -1.04110  -1.01624  -0.99571  -0.98334
 Alpha  occ. eigenvalues --   -0.92834  -0.88844  -0.87377  -0.85518  -0.80418
 Alpha  occ. eigenvalues --   -0.79647  -0.79000  -0.75493  -0.73768  -0.72909
 Alpha  occ. eigenvalues --   -0.72394  -0.71777  -0.71054  -0.69817  -0.69192
 Alpha  occ. eigenvalues --   -0.67747  -0.67477  -0.66798  -0.65958  -0.65855
 Alpha  occ. eigenvalues --   -0.65580  -0.64431  -0.64193  -0.63090  -0.61451
 Alpha  occ. eigenvalues --   -0.60769  -0.60516  -0.59744  -0.58717  -0.57966
 Alpha  occ. eigenvalues --   -0.56327  -0.54993  -0.53158  -0.52710  -0.51426
 Alpha virt. eigenvalues --   -0.00755   0.01335   0.01815   0.02303   0.03364
 Alpha virt. eigenvalues --    0.03468   0.04790   0.05124   0.05456   0.07020
 Alpha virt. eigenvalues --    0.08386   0.08656   0.08905   0.09757   0.09784
 Alpha virt. eigenvalues --    0.09809   0.10304   0.10452   0.10588   0.11670
 Alpha virt. eigenvalues --    0.11672   0.11956   0.12832   0.13348   0.14188
 Alpha virt. eigenvalues --    0.14279   0.14823   0.15169   0.16079   0.16899
 Alpha virt. eigenvalues --    0.16940   0.16995   0.17802   0.18632   0.18860
 Alpha virt. eigenvalues --    0.19040   0.20144   0.20197   0.21385   0.21821
 Alpha virt. eigenvalues --    0.22585   0.23523   0.25086   0.25507   0.26630
 Alpha virt. eigenvalues --    0.26847   0.27697   0.28151   0.28432   0.28767
 Alpha virt. eigenvalues --    0.29505   0.29686   0.30259   0.31780   0.32578
 Alpha virt. eigenvalues --    0.33366   0.33973   0.35163   0.35464   0.36021
 Alpha virt. eigenvalues --    0.36947   0.38130   0.38246   0.39076   0.39692
 Alpha virt. eigenvalues --    0.39759   0.41239   0.41250   0.41651   0.42016
 Alpha virt. eigenvalues --    0.42495   0.43306   0.43927   0.44612   0.44814
 Alpha virt. eigenvalues --    0.45198   0.46140   0.46642   0.47165   0.47313
 Alpha virt. eigenvalues --    0.48472   0.48644   0.48738   0.48828   0.49532
 Alpha virt. eigenvalues --    0.49927   0.50182   0.50509   0.50672   0.51200
 Alpha virt. eigenvalues --    0.52098   0.52467   0.53117   0.53346   0.53737
 Alpha virt. eigenvalues --    0.54187   0.55127   0.55252   0.55696   0.56272
 Alpha virt. eigenvalues --    0.56475   0.56563   0.57134   0.57274   0.57607
 Alpha virt. eigenvalues --    0.57766   0.58869   0.59010   0.59406   0.59423
 Alpha virt. eigenvalues --    0.60527   0.60534   0.60781   0.61048   0.61829
 Alpha virt. eigenvalues --    0.62395   0.62513   0.63142   0.63897   0.64619
 Alpha virt. eigenvalues --    0.66345   0.66729   0.67208   0.67797   0.67851
 Alpha virt. eigenvalues --    0.69487   0.71213   0.71886   0.72843   0.73263
 Alpha virt. eigenvalues --    0.74726   0.75754   0.76916   0.78602   0.79021
 Alpha virt. eigenvalues --    0.79346   0.79923   0.80280   0.81243   0.81759
 Alpha virt. eigenvalues --    0.84218   0.84471   0.84645   0.85182   0.85943
 Alpha virt. eigenvalues --    0.86651   0.87155   0.87824   0.88464   0.88946
 Alpha virt. eigenvalues --    0.89029   0.89990   0.90647   0.91088   0.91300
 Alpha virt. eigenvalues --    0.92597   0.93120   0.93324   0.94082   0.94336
 Alpha virt. eigenvalues --    0.95701   0.96921   0.97913   0.98995   0.99089
 Alpha virt. eigenvalues --    0.99353   1.00464   1.01257   1.02107   1.03072
 Alpha virt. eigenvalues --    1.03295   1.03394   1.05073   1.05168   1.06461
 Alpha virt. eigenvalues --    1.06644   1.07736   1.07924   1.08219   1.09081
 Alpha virt. eigenvalues --    1.09710   1.10264   1.11166   1.11484   1.12031
 Alpha virt. eigenvalues --    1.13227   1.13673   1.14261   1.14342   1.14711
 Alpha virt. eigenvalues --    1.15261   1.16099   1.16382   1.17488   1.18056
 Alpha virt. eigenvalues --    1.18232   1.18439   1.18845   1.20753   1.21000
 Alpha virt. eigenvalues --    1.21458   1.21614   1.21889   1.22338   1.22809
 Alpha virt. eigenvalues --    1.23569   1.24244   1.24459   1.25525   1.26371
 Alpha virt. eigenvalues --    1.26696   1.26822   1.26884   1.27264   1.27708
 Alpha virt. eigenvalues --    1.28136   1.28979   1.29044   1.29317   1.29329
 Alpha virt. eigenvalues --    1.31357   1.32651   1.32656   1.33243   1.33519
 Alpha virt. eigenvalues --    1.33625   1.33960   1.34265   1.34767   1.34964
 Alpha virt. eigenvalues --    1.35593   1.36475   1.36891   1.37551   1.38644
 Alpha virt. eigenvalues --    1.38847   1.39229   1.39718   1.40697   1.40830
 Alpha virt. eigenvalues --    1.41243   1.42792   1.42823   1.42979   1.43822
 Alpha virt. eigenvalues --    1.44687   1.44939   1.45971   1.46472   1.47183
 Alpha virt. eigenvalues --    1.47389   1.47416   1.47796   1.49487   1.49627
 Alpha virt. eigenvalues --    1.50242   1.50947   1.51118   1.51427   1.51697
 Alpha virt. eigenvalues --    1.52368   1.53566   1.53862   1.54908   1.55410
 Alpha virt. eigenvalues --    1.55593   1.56288   1.56650   1.57060   1.57138
 Alpha virt. eigenvalues --    1.58631   1.58834   1.59492   1.61062   1.62406
 Alpha virt. eigenvalues --    1.63073   1.63391   1.63750   1.64384   1.66165
 Alpha virt. eigenvalues --    1.66692   1.67360   1.67683   1.68344   1.69083
 Alpha virt. eigenvalues --    1.69428   1.70150   1.70947   1.71723   1.71778
 Alpha virt. eigenvalues --    1.73205   1.73880   1.74285   1.75466   1.75822
 Alpha virt. eigenvalues --    1.76705   1.77419   1.77923   1.78002   1.79095
 Alpha virt. eigenvalues --    1.79518   1.82662   1.82701   1.83292   1.83581
 Alpha virt. eigenvalues --    1.86038   1.86143   1.86840   1.88876   1.91235
 Alpha virt. eigenvalues --    1.91846   1.94508   1.97460   1.98211   2.00526
 Alpha virt. eigenvalues --    2.01993   2.03900   2.04718   2.08095   2.10034
 Alpha virt. eigenvalues --    2.14456   2.34309   2.42849   2.43909   2.44086
 Alpha virt. eigenvalues --    2.46121   2.46133   2.50236   2.50361   2.50870
 Alpha virt. eigenvalues --    2.50923   2.52604   2.52940   2.54719   2.55483
 Alpha virt. eigenvalues --    2.55841   2.57180   2.58506   2.58846   2.59731
 Alpha virt. eigenvalues --    2.61326   2.62171   2.63042   2.64466   2.64859
 Alpha virt. eigenvalues --    2.64941   2.67137   2.67480   2.67579   2.68837
 Alpha virt. eigenvalues --    2.68972   2.70816   2.71283   2.71329   2.71537
 Alpha virt. eigenvalues --    2.72553   2.72834   2.74496   2.75084   2.75116
 Alpha virt. eigenvalues --    2.75538   2.76754   2.76862   2.77115   2.77603
 Alpha virt. eigenvalues --    2.78500   2.79762   2.80201   2.80356   2.81888
 Alpha virt. eigenvalues --    2.82580   2.83722   2.83798   2.84386   2.84766
 Alpha virt. eigenvalues --    2.85332   2.86730   2.87644   2.87845   2.87934
 Alpha virt. eigenvalues --    2.89740   2.89915   2.91030   2.92047   2.92564
 Alpha virt. eigenvalues --    2.93741   2.95060   2.95362   2.96111   2.96151
 Alpha virt. eigenvalues --    2.96604   2.97382   2.98007   2.98334   2.99213
 Alpha virt. eigenvalues --    2.99791   3.00664   3.00906   3.01468   3.01574
 Alpha virt. eigenvalues --    3.02452   3.03187   3.03883   3.05047   3.06656
 Alpha virt. eigenvalues --    3.07331   3.07515   3.07798   3.08769   3.09593
 Alpha virt. eigenvalues --    3.10933   3.11572   3.11836   3.12053   3.12392
 Alpha virt. eigenvalues --    3.13468   3.14198   3.16255   3.16424   3.17514
 Alpha virt. eigenvalues --    3.17766   3.18685   3.19041   3.20267   3.20424
 Alpha virt. eigenvalues --    3.21056   3.21936   3.21968   3.22575   3.23325
 Alpha virt. eigenvalues --    3.23587   3.24134   3.24405   3.26252   3.26323
 Alpha virt. eigenvalues --    3.26884   3.27543   3.28088   3.28544   3.28642
 Alpha virt. eigenvalues --    3.28845   3.29241   3.29752   3.29923   3.30126
 Alpha virt. eigenvalues --    3.30511   3.30603   3.30888   3.31500   3.31687
 Alpha virt. eigenvalues --    3.32136   3.32910   3.33055   3.33474   3.34167
 Alpha virt. eigenvalues --    3.34227   3.34655   3.34723   3.36061   3.36190
 Alpha virt. eigenvalues --    3.36919   3.36955   3.37406   3.37591   3.37971
 Alpha virt. eigenvalues --    3.39312   3.39334   3.39764   3.39846   3.40542
 Alpha virt. eigenvalues --    3.40752   3.42398   3.43114   3.43876   3.44346
 Alpha virt. eigenvalues --    3.44799   3.45037   3.45593   3.46071   3.46793
 Alpha virt. eigenvalues --    3.47232   3.47880   3.48531   3.49398   3.49469
 Alpha virt. eigenvalues --    3.49533   3.50830   3.51043   3.51535   3.51813
 Alpha virt. eigenvalues --    3.52238   3.52619   3.52879   3.53791   3.54038
 Alpha virt. eigenvalues --    3.55542   3.56203   3.56821   3.57958   3.58444
 Alpha virt. eigenvalues --    3.59276   3.60600   3.63052   3.63113   3.63602
 Alpha virt. eigenvalues --    3.64131   3.64696   3.64983   3.65618   3.65997
 Alpha virt. eigenvalues --    3.68202   3.68210   3.69619   3.69838   3.70524
 Alpha virt. eigenvalues --    3.70739   3.71595   3.72087   3.72732   3.73155
 Alpha virt. eigenvalues --    3.73848   3.74041   3.74964   3.75768   3.76165
 Alpha virt. eigenvalues --    3.76634   3.77583   3.77782   3.77987   3.78359
 Alpha virt. eigenvalues --    3.79059   3.80046   3.80335   3.80990   3.81087
 Alpha virt. eigenvalues --    3.81597   3.82905   3.83146   3.83472   3.83889
 Alpha virt. eigenvalues --    3.84704   3.85952   3.86941   3.87629   3.87970
 Alpha virt. eigenvalues --    3.88095   3.90949   3.92628   3.93032   3.93419
 Alpha virt. eigenvalues --    3.93542   3.93702   3.94733   3.95238   3.95517
 Alpha virt. eigenvalues --    3.95779   3.96983   3.97676   3.98140   3.98274
 Alpha virt. eigenvalues --    3.98536   3.99419   4.00133   4.00858   4.01050
 Alpha virt. eigenvalues --    4.01454   4.02162   4.03108   4.04031   4.04818
 Alpha virt. eigenvalues --    4.04970   4.05657   4.06046   4.06394   4.06431
 Alpha virt. eigenvalues --    4.07732   4.08134   4.08625   4.09088   4.09772
 Alpha virt. eigenvalues --    4.10642   4.10927   4.11348   4.11429   4.12055
 Alpha virt. eigenvalues --    4.12332   4.12874   4.13343   4.14243   4.14471
 Alpha virt. eigenvalues --    4.14798   4.14902   4.16076   4.17561   4.18465
 Alpha virt. eigenvalues --    4.18503   4.18902   4.19663   4.19947   4.20610
 Alpha virt. eigenvalues --    4.20754   4.21329   4.23141   4.23886   4.24651
 Alpha virt. eigenvalues --    4.25305   4.25763   4.26043   4.26062   4.27252
 Alpha virt. eigenvalues --    4.27730   4.27872   4.28272   4.28324   4.29288
 Alpha virt. eigenvalues --    4.29448   4.29517   4.29791   4.30380   4.30789
 Alpha virt. eigenvalues --    4.31074   4.31803   4.32043   4.33066   4.33949
 Alpha virt. eigenvalues --    4.34378   4.36193   4.36594   4.36671   4.36884
 Alpha virt. eigenvalues --    4.37797   4.39626   4.39794   4.40181   4.41084
 Alpha virt. eigenvalues --    4.41427   4.42332   4.42379   4.43587   4.44005
 Alpha virt. eigenvalues --    4.44926   4.45377   4.46272   4.46727   4.46996
 Alpha virt. eigenvalues --    4.47130   4.48348   4.48990   4.49794   4.49950
 Alpha virt. eigenvalues --    4.50368   4.50680   4.51535   4.51930   4.53030
 Alpha virt. eigenvalues --    4.53451   4.54010   4.54594   4.55436   4.55627
 Alpha virt. eigenvalues --    4.56432   4.57846   4.58313   4.58793   4.59420
 Alpha virt. eigenvalues --    4.59726   4.61342   4.62087   4.63183   4.63674
 Alpha virt. eigenvalues --    4.63734   4.66183   4.66362   4.66828   4.67852
 Alpha virt. eigenvalues --    4.69170   4.69734   4.71338   4.72306   4.72753
 Alpha virt. eigenvalues --    4.74488   4.74501   4.76223   4.77388   4.80954
 Alpha virt. eigenvalues --    4.83767   4.84948   4.85837   4.88859   4.89203
 Alpha virt. eigenvalues --    4.90794   4.92674   4.93606   4.94368   4.95247
 Alpha virt. eigenvalues --    4.95800   4.97420   4.98318   4.98346   4.99064
 Alpha virt. eigenvalues --    5.00264   5.00341   5.02350   5.03772   5.04816
 Alpha virt. eigenvalues --    5.04982   5.05277   5.06000   5.07117   5.08074
 Alpha virt. eigenvalues --    5.08401   5.08683   5.09476   5.10043   5.10454
 Alpha virt. eigenvalues --    5.11151   5.11464   5.11773   5.12902   5.13184
 Alpha virt. eigenvalues --    5.13467   5.13857   5.15118   5.15546   5.15580
 Alpha virt. eigenvalues --    5.17491   5.17497   5.17872   5.18452   5.18894
 Alpha virt. eigenvalues --    5.19719   5.21564   5.22225   5.23312   5.23675
 Alpha virt. eigenvalues --    5.24847   5.24935   5.26048   5.27180   5.29326
 Alpha virt. eigenvalues --    5.30353   5.31382   5.31844   5.32221   5.33937
 Alpha virt. eigenvalues --    5.36212   5.37690   5.40890   5.41143   5.42834
 Alpha virt. eigenvalues --    5.44265   5.44443   5.44585   5.44929   5.46271
 Alpha virt. eigenvalues --    5.48034   5.49188   5.49609   5.51795   5.52439
 Alpha virt. eigenvalues --    5.53487   5.54343   5.55046   5.55156   5.55719
 Alpha virt. eigenvalues --    5.58292   5.58663   5.59002   5.59080   5.61545
 Alpha virt. eigenvalues --    5.62042   5.62571   5.64501   5.65544   5.66008
 Alpha virt. eigenvalues --    5.66459   5.66854   5.66978   5.68061   5.69520
 Alpha virt. eigenvalues --    5.69783   5.71416   5.71826   5.72414   5.72956
 Alpha virt. eigenvalues --    5.73474   5.75545   5.75593   5.76142   5.77587
 Alpha virt. eigenvalues --    5.78737   5.79141   5.80093   5.81896   5.82505
 Alpha virt. eigenvalues --    5.83640   5.84980   5.86233   5.88035   5.89740
 Alpha virt. eigenvalues --    5.94301   5.95777   6.02285   6.02773   6.14346
 Alpha virt. eigenvalues --    6.14599   6.16023   6.16277   6.18184   6.19459
 Alpha virt. eigenvalues --    6.19648   6.23590   6.26057   6.26875   6.28522
 Alpha virt. eigenvalues --    6.30372   6.30794   6.32123   6.34122   6.35012
 Alpha virt. eigenvalues --    6.39344   6.45984   6.73657  12.56773  12.57663
 Alpha virt. eigenvalues --   12.93199  12.96870  13.18208  13.28560  13.38713
 Alpha virt. eigenvalues --   13.43910  13.69861  13.86820  13.99008  14.02856
 Alpha virt. eigenvalues --   14.02956  14.06019
          Condensed to atoms (all electrons):
               1          2          3          4          5          6
     1  C    5.265735   0.345663   0.345659  -0.027472  -0.003700   0.002608
     2  H    0.345663   0.532910  -0.018048  -0.003515   0.000229  -0.000113
     3  H    0.345659  -0.018048   0.532934   0.002624  -0.000113  -0.000081
     4  C   -0.027472  -0.003515   0.002624   5.265051   0.345793   0.346282
     5  H   -0.003700   0.000229  -0.000113   0.345793   0.531060  -0.018550
     6  H    0.002608  -0.000113  -0.000081   0.346282  -0.018550   0.533072
     7  C   -0.027484   0.002624  -0.003519  -0.029516   0.000087   0.000142
     8  H    0.002612  -0.000081  -0.000113   0.000140  -0.000158   0.001581
     9  H   -0.003715  -0.000113   0.000228   0.000090   0.001412  -0.000160
    10  C   -0.029422   0.000209   0.000265  -0.028504   0.002792  -0.003828
    11  H    0.000214   0.001479  -0.000119  -0.003209  -0.000111   0.000240
    12  H    0.000202  -0.000115   0.001456   0.002466  -0.000080  -0.000127
    13  C    0.000708   0.000023   0.000023   0.001946   0.000002   0.000204
    14  H    0.000054  -0.000003  -0.000001  -0.000616  -0.000064   0.000286
    15  H    0.000052  -0.000001  -0.000003   0.000423   0.000197  -0.001375
    16  C    0.258688  -0.025147  -0.025166   0.001942  -0.000237  -0.000013
    17  H   -0.036977  -0.003370   0.005005   0.001937  -0.001104   0.000143
    18  H   -0.025477  -0.004349  -0.004358  -0.000094   0.000005   0.000010
    19  H   -0.036994   0.005005  -0.003361  -0.000773   0.000192  -0.000058
    20  C    0.002045  -0.000012  -0.000218   0.001667   0.000006   0.000015
    21  H   -0.000697  -0.000055   0.000174   0.000064   0.000002  -0.000004
    22  H   -0.000095   0.000010   0.000006  -0.000125   0.000000  -0.000000
    23  H    0.001575   0.000135  -0.000955   0.000082  -0.000005   0.000000
    24  C    0.002045  -0.000215  -0.000012   0.257143  -0.024596  -0.024602
    25  H   -0.000096   0.000006   0.000011  -0.025398  -0.004330  -0.004307
    26  H   -0.000701   0.000176  -0.000056  -0.036433   0.004964  -0.003475
    27  H    0.001576  -0.000955   0.000134  -0.037370  -0.003423   0.005022
    28  C   -0.000158   0.000001   0.000001  -0.000022   0.000011  -0.000010
    29  H    0.000002  -0.000006   0.000002   0.000007  -0.000001   0.000028
    30  H    0.000002   0.000002  -0.000006  -0.000018   0.000000  -0.000002
    31  C    0.000001   0.000000   0.000000  -0.000022  -0.000001   0.000010
    32  H   -0.000000  -0.000000   0.000000   0.000000   0.000000   0.000006
    33  H   -0.000000   0.000000  -0.000000  -0.000012  -0.000000   0.000002
    34  C   -0.000000   0.000000   0.000000   0.000000   0.000000  -0.000001
    35  H    0.000000   0.000000  -0.000000   0.000000   0.000000   0.000000
    36  H    0.000000  -0.000000   0.000000  -0.000000  -0.000000   0.000000
    37  C    0.000000   0.000000   0.000000  -0.000000  -0.000000   0.000000
    38  H    0.000000  -0.000000  -0.000000  -0.000000   0.000000  -0.000000
    39  H    0.000000  -0.000000  -0.000000  -0.000000   0.000000   0.000000
    40  C   -0.000000   0.000000   0.000000   0.000000   0.000000  -0.000000
    41  H   -0.000000  -0.000000   0.000000  -0.000000  -0.000000  -0.000000
    42  H   -0.000000   0.000000  -0.000000   0.000000  -0.000000   0.000000
    43  C    0.000000   0.000000   0.000000  -0.000000  -0.000000   0.000000
    44  H   -0.000000   0.000000   0.000000  -0.000000  -0.000000   0.000000
    45  H   -0.000000  -0.000000  -0.000000   0.000000   0.000000  -0.000000
    46  H   -0.000000   0.000000   0.000000   0.000000  -0.000000  -0.000000
    47  P    0.281928  -0.020305  -0.020322   0.285110  -0.020255  -0.021096
               7          8          9         10         11         12
     1  C   -0.027484   0.002612  -0.003715  -0.029422   0.000214   0.000202
     2  H    0.002624  -0.000081  -0.000113   0.000209   0.001479  -0.000115
     3  H   -0.003519  -0.000113   0.000228   0.000265  -0.000119   0.001456
     4  C   -0.029516   0.000140   0.000090  -0.028504  -0.003209   0.002466
     5  H    0.000087  -0.000158   0.001412   0.002792  -0.000111  -0.000080
     6  H    0.000142   0.001581  -0.000160  -0.003828   0.000240  -0.000127
     7  C    5.264294   0.346323   0.345826  -0.028573   0.002465  -0.003241
     8  H    0.346323   0.532981  -0.018562  -0.003793  -0.000126   0.000242
     9  H    0.345826  -0.018562   0.531353   0.002790  -0.000080  -0.000110
    10  C   -0.028573  -0.003793   0.002790   5.330209   0.340262   0.340391
    11  H    0.002465  -0.000126  -0.000080   0.340262   0.532080  -0.015505
    12  H   -0.003241   0.000242  -0.000110   0.340391  -0.015505   0.531671
    13  C    0.001935   0.000207   0.000002   0.226405  -0.027675  -0.027599
    14  H    0.000396  -0.001293   0.000192  -0.037713   0.005277  -0.002707
    15  H   -0.000575   0.000277  -0.000064  -0.037593  -0.002703   0.005271
    16  C    0.001954  -0.000013  -0.000237   0.001729   0.000030   0.000026
    17  H   -0.000768  -0.000057   0.000190   0.000067  -0.000002  -0.000001
    18  H   -0.000094   0.000010   0.000005  -0.000133  -0.000000  -0.000000
    19  H    0.001923   0.000143  -0.001094   0.000067  -0.000001  -0.000002
    20  C    0.257329  -0.024599  -0.024651   0.002890  -0.000002  -0.000468
    21  H   -0.036417  -0.003479   0.004972   0.002513   0.000130  -0.001126
    22  H   -0.025398  -0.004301  -0.004344  -0.000086   0.000011   0.000014
    23  H   -0.037390   0.005021  -0.003407  -0.001087  -0.000063   0.000250
    24  C    0.001665   0.000015   0.000007   0.002956  -0.000489  -0.000002
    25  H   -0.000125  -0.000000   0.000000  -0.000089   0.000015   0.000011
    26  H    0.000065  -0.000004   0.000002   0.002551  -0.001140   0.000129
    27  H    0.000082   0.000000  -0.000005  -0.001097   0.000249  -0.000063
    28  C   -0.000020  -0.000011   0.000011  -0.041552  -0.001487  -0.001472
    29  H   -0.000018  -0.000002   0.000000  -0.004811   0.002477   0.000006
    30  H    0.000008   0.000028  -0.000001  -0.004805   0.000007   0.002477
    31  C   -0.000021   0.000009  -0.000001   0.002348   0.000081   0.000078
    32  H   -0.000012   0.000002  -0.000000   0.000114  -0.000023   0.000044
    33  H    0.000000   0.000006   0.000000   0.000111   0.000044  -0.000023
    34  C    0.000000  -0.000001   0.000000  -0.000489  -0.000013  -0.000013
    35  H   -0.000000   0.000000  -0.000000   0.000019  -0.000015   0.000005
    36  H    0.000000   0.000000   0.000000   0.000019   0.000005  -0.000015
    37  C   -0.000000   0.000000  -0.000000  -0.000001   0.000001   0.000001
    38  H   -0.000000   0.000000   0.000000   0.000000  -0.000000   0.000000
    39  H   -0.000000  -0.000000   0.000000   0.000000   0.000000  -0.000000
    40  C    0.000000  -0.000000   0.000000  -0.000000  -0.000000  -0.000000
    41  H    0.000000   0.000000  -0.000000   0.000000   0.000000  -0.000000
    42  H   -0.000000  -0.000000  -0.000000   0.000000  -0.000000   0.000000
    43  C   -0.000000   0.000000  -0.000000  -0.000000   0.000000   0.000000
    44  H    0.000000  -0.000000  -0.000000  -0.000000   0.000000  -0.000000
    45  H    0.000000  -0.000000   0.000000  -0.000000  -0.000000  -0.000000
    46  H   -0.000000   0.000000  -0.000000  -0.000000  -0.000000   0.000000
    47  P    0.285100  -0.021106  -0.020259   0.275052  -0.021643  -0.021636
              13         14         15         16         17         18
     1  C    0.000708   0.000054   0.000052   0.258688  -0.036977  -0.025477
     2  H    0.000023  -0.000003  -0.000001  -0.025147  -0.003370  -0.004349
     3  H    0.000023  -0.000001  -0.000003  -0.025166   0.005005  -0.004358
     4  C    0.001946  -0.000616   0.000423   0.001942   0.001937  -0.000094
     5  H    0.000002  -0.000064   0.000197  -0.000237  -0.001104   0.000005
     6  H    0.000204   0.000286  -0.001375  -0.000013   0.000143   0.000010
     7  C    0.001935   0.000396  -0.000575   0.001954  -0.000768  -0.000094
     8  H    0.000207  -0.001293   0.000277  -0.000013  -0.000057   0.000010
     9  H    0.000002   0.000192  -0.000064  -0.000237   0.000190   0.000005
    10  C    0.226405  -0.037713  -0.037593   0.001729   0.000067  -0.000133
    11  H   -0.027675   0.005277  -0.002703   0.000030  -0.000002  -0.000000
    12  H   -0.027599  -0.002707   0.005271   0.000026  -0.000001  -0.000000
    13  C    5.335524   0.355807   0.355889  -0.000174   0.000004   0.000003
    14  H    0.355807   0.582241  -0.026005   0.000002  -0.000001   0.000000
    15  H    0.355889  -0.026005   0.582569   0.000002  -0.000001   0.000000
    16  C   -0.000174   0.000002   0.000002   5.108685   0.373904   0.364897
    17  H    0.000004  -0.000001  -0.000001   0.373904   0.563156  -0.020113
    18  H    0.000003   0.000000   0.000000   0.364897  -0.020113   0.526828
    19  H    0.000004  -0.000001  -0.000001   0.373913  -0.026895  -0.020113
    20  C   -0.001933  -0.000070   0.000061  -0.001464   0.000078  -0.000013
    21  H   -0.000938   0.001267  -0.000024   0.000079  -0.000000   0.000003
    22  H   -0.000035  -0.000010   0.000003  -0.000011   0.000003  -0.000001
    23  H    0.000188  -0.000057  -0.000000  -0.000268  -0.000044  -0.000009
    24  C   -0.002011   0.000067  -0.000096  -0.001466  -0.000249  -0.000013
    25  H   -0.000035   0.000003  -0.000010  -0.000011  -0.000010  -0.000001
    26  H   -0.000969  -0.000022   0.001301   0.000079  -0.000047   0.000003
    27  H    0.000194  -0.000000  -0.000058  -0.000268   0.001289  -0.000009
    28  C    0.238859  -0.029278  -0.029409   0.000002   0.000000  -0.000000
    29  H   -0.039406   0.006488  -0.004215   0.000000   0.000000   0.000000
    30  H   -0.039341  -0.004218   0.006493   0.000000  -0.000000   0.000000
    31  C   -0.043007  -0.000303  -0.000327  -0.000000   0.000000   0.000000
    32  H   -0.005054   0.002612  -0.000190   0.000000   0.000000  -0.000000
    33  H   -0.005111  -0.000183   0.002633   0.000000  -0.000000  -0.000000
    34  C    0.000833   0.000085   0.000085   0.000000   0.000000  -0.000000
    35  H    0.000163  -0.000034   0.000053   0.000000   0.000000  -0.000000
    36  H    0.000161   0.000053  -0.000034   0.000000  -0.000000  -0.000000
    37  C   -0.000547   0.000002   0.000002  -0.000000  -0.000000   0.000000
    38  H    0.000017  -0.000017   0.000007   0.000000  -0.000000   0.000000
    39  H    0.000017   0.000007  -0.000017   0.000000  -0.000000   0.000000
    40  C   -0.000003   0.000000   0.000000   0.000000   0.000000  -0.000000
    41  H   -0.000000  -0.000000   0.000000  -0.000000   0.000000   0.000000
    42  H   -0.000000   0.000000  -0.000000  -0.000000  -0.000000   0.000000
    43  C   -0.000000   0.000000   0.000000  -0.000000   0.000000   0.000000
    44  H   -0.000000   0.000000  -0.000000  -0.000000   0.000000  -0.000000
    45  H    0.000000   0.000000   0.000000   0.000000   0.000000  -0.000000
    46  H   -0.000000  -0.000000   0.000000  -0.000000   0.000000  -0.000000
    47  P   -0.043106  -0.003284  -0.003486  -0.046589  -0.002618   0.005322
              19         20         21         22         23         24
     1  C   -0.036994   0.002045  -0.000697  -0.000095   0.001575   0.002045
     2  H    0.005005  -0.000012  -0.000055   0.000010   0.000135  -0.000215
     3  H   -0.003361  -0.000218   0.000174   0.000006  -0.000955  -0.000012
     4  C   -0.000773   0.001667   0.000064  -0.000125   0.000082   0.257143
     5  H    0.000192   0.000006   0.000002   0.000000  -0.000005  -0.024596
     6  H   -0.000058   0.000015  -0.000004  -0.000000   0.000000  -0.024602
     7  C    0.001923   0.257329  -0.036417  -0.025398  -0.037390   0.001665
     8  H    0.000143  -0.024599  -0.003479  -0.004301   0.005021   0.000015
     9  H   -0.001094  -0.024651   0.004972  -0.004344  -0.003407   0.000007
    10  C    0.000067   0.002890   0.002513  -0.000086  -0.001087   0.002956
    11  H   -0.000001  -0.000002   0.000130   0.000011  -0.000063  -0.000489
    12  H   -0.000002  -0.000468  -0.001126   0.000014   0.000250  -0.000002
    13  C    0.000004  -0.001933  -0.000938  -0.000035   0.000188  -0.002011
    14  H   -0.000001  -0.000070   0.001267  -0.000010  -0.000057   0.000067
    15  H   -0.000001   0.000061  -0.000024   0.000003  -0.000000  -0.000096
    16  C    0.373913  -0.001464   0.000079  -0.000011  -0.000268  -0.001466
    17  H   -0.026895   0.000078  -0.000000   0.000003  -0.000044  -0.000249
    18  H   -0.020113  -0.000013   0.000003  -0.000001  -0.000009  -0.000013
    19  H    0.563163  -0.000247  -0.000047  -0.000009   0.001285   0.000078
    20  C   -0.000247   5.109523   0.373643   0.364693   0.374145  -0.000143
    21  H   -0.000047   0.373643   0.562788  -0.020054  -0.027081   0.000000
    22  H   -0.000009   0.364693  -0.020054   0.527122  -0.020153   0.000003
    23  H    0.001285   0.374145  -0.027081  -0.020153   0.563192   0.000001
    24  C    0.000078  -0.000143   0.000000   0.000003   0.000001   5.109749
    25  H    0.000003   0.000003   0.000000  -0.000000   0.000000   0.364688
    26  H   -0.000000   0.000000  -0.000001   0.000000  -0.000001   0.373652
    27  H   -0.000044   0.000001  -0.000001   0.000000  -0.000001   0.374116
    28  C    0.000000   0.000026   0.000026  -0.000000   0.000001   0.000030
    29  H   -0.000000  -0.000002  -0.000003  -0.000000  -0.000000   0.000001
    30  H    0.000000   0.000001   0.000016  -0.000001   0.000002  -0.000002
    31  C    0.000000  -0.000002  -0.000016  -0.000000   0.000000  -0.000003
    32  H   -0.000000   0.000000  -0.000012   0.000000  -0.000000  -0.000000
    33  H    0.000000  -0.000000   0.000001  -0.000000   0.000000   0.000000
    34  C    0.000000  -0.000000  -0.000000  -0.000000   0.000000  -0.000000
    35  H   -0.000000   0.000000  -0.000000  -0.000000   0.000000  -0.000000
    36  H    0.000000  -0.000000   0.000000  -0.000000   0.000000   0.000000
    37  C   -0.000000   0.000000  -0.000000  -0.000000   0.000000   0.000000
    38  H   -0.000000   0.000000   0.000000  -0.000000   0.000000   0.000000
    39  H   -0.000000   0.000000   0.000000   0.000000  -0.000000   0.000000
    40  C    0.000000  -0.000000  -0.000000   0.000000   0.000000  -0.000000
    41  H   -0.000000  -0.000000  -0.000000  -0.000000   0.000000   0.000000
    42  H    0.000000   0.000000  -0.000000  -0.000000  -0.000000  -0.000000
    43  C    0.000000   0.000000  -0.000000  -0.000000   0.000000   0.000000
    44  H    0.000000  -0.000000  -0.000000   0.000000  -0.000000   0.000000
    45  H    0.000000  -0.000000   0.000000   0.000000   0.000000  -0.000000
    46  H    0.000000   0.000000   0.000000   0.000000   0.000000  -0.000000
    47  P   -0.002614  -0.047732  -0.003070   0.005323  -0.001999  -0.047785
              25         26         27         28         29         30
     1  C   -0.000096  -0.000701   0.001576  -0.000158   0.000002   0.000002
     2  H    0.000006   0.000176  -0.000955   0.000001  -0.000006   0.000002
     3  H    0.000011  -0.000056   0.000134   0.000001   0.000002  -0.000006
     4  C   -0.025398  -0.036433  -0.037370  -0.000022   0.000007  -0.000018
     5  H   -0.004330   0.004964  -0.003423   0.000011  -0.000001   0.000000
     6  H   -0.004307  -0.003475   0.005022  -0.000010   0.000028  -0.000002
     7  C   -0.000125   0.000065   0.000082  -0.000020  -0.000018   0.000008
     8  H   -0.000000  -0.000004   0.000000  -0.000011  -0.000002   0.000028
     9  H    0.000000   0.000002  -0.000005   0.000011   0.000000  -0.000001
    10  C   -0.000089   0.002551  -0.001097  -0.041552  -0.004811  -0.004805
    11  H    0.000015  -0.001140   0.000249  -0.001487   0.002477   0.000007
    12  H    0.000011   0.000129  -0.000063  -0.001472   0.000006   0.002477
    13  C   -0.000035  -0.000969   0.000194   0.238859  -0.039406  -0.039341
    14  H    0.000003  -0.000022  -0.000000  -0.029278   0.006488  -0.004218
    15  H   -0.000010   0.001301  -0.000058  -0.029409  -0.004215   0.006493
    16  C   -0.000011   0.000079  -0.000268   0.000002   0.000000   0.000000
    17  H   -0.000010  -0.000047   0.001289   0.000000   0.000000  -0.000000
    18  H   -0.000001   0.000003  -0.000009  -0.000000   0.000000   0.000000
    19  H    0.000003  -0.000000  -0.000044   0.000000  -0.000000   0.000000
    20  C    0.000003   0.000000   0.000001   0.000026  -0.000002   0.000001
    21  H    0.000000  -0.000001  -0.000001   0.000026  -0.000003   0.000016
    22  H   -0.000000   0.000000   0.000000  -0.000000  -0.000000  -0.000001
    23  H    0.000000  -0.000001  -0.000001   0.000001  -0.000000   0.000002
    24  C    0.364688   0.373652   0.374116   0.000030   0.000001  -0.000002
    25  H    0.527091  -0.020050  -0.020139  -0.000000  -0.000001  -0.000000
    26  H   -0.020050   0.562834  -0.027108   0.000028   0.000018  -0.000003
    27  H   -0.020139  -0.027108   0.563158   0.000001   0.000002  -0.000000
    28  C   -0.000000   0.000028   0.000001   5.232640   0.364451   0.364385
    29  H   -0.000001   0.000018   0.000002   0.364451   0.594790  -0.026409
    30  H   -0.000000  -0.000003  -0.000000   0.364385  -0.026409   0.594580
    31  C   -0.000000  -0.000017   0.000000   0.267202  -0.034070  -0.033977
    32  H   -0.000000   0.000001   0.000000  -0.038000   0.006606  -0.003808
    33  H    0.000000  -0.000013  -0.000000  -0.038035  -0.003797   0.006602
    34  C   -0.000000  -0.000000   0.000000  -0.038762  -0.000844  -0.000830
    35  H   -0.000000   0.000000   0.000000  -0.004986   0.002181   0.000080
    36  H   -0.000000  -0.000000   0.000000  -0.004964   0.000079   0.002174
    37  C   -0.000000  -0.000000   0.000000   0.002981   0.000065   0.000064
    38  H    0.000000   0.000000  -0.000000   0.000116  -0.000032   0.000053
    39  H   -0.000000   0.000000   0.000000   0.000117   0.000053  -0.000032
    40  C    0.000000  -0.000000   0.000000  -0.000403   0.000002   0.000003
    41  H   -0.000000  -0.000000  -0.000000   0.000014  -0.000015   0.000005
    42  H   -0.000000  -0.000000   0.000000   0.000014   0.000005  -0.000015
    43  C   -0.000000  -0.000000   0.000000   0.000003   0.000000   0.000000
    44  H    0.000000   0.000000   0.000000  -0.000000  -0.000000   0.000000
    45  H    0.000000   0.000000   0.000000  -0.000000   0.000000   0.000000
    46  H    0.000000  -0.000000  -0.000000  -0.000000   0.000000  -0.000000
    47  P    0.005324  -0.003085  -0.001979  -0.001470   0.000146   0.000142
              31         32         33         34         35         36
     1  C    0.000001  -0.000000  -0.000000  -0.000000   0.000000   0.000000
     2  H    0.000000  -0.000000   0.000000   0.000000   0.000000  -0.000000
     3  H    0.000000   0.000000  -0.000000   0.000000  -0.000000   0.000000
     4  C   -0.000022   0.000000  -0.000012   0.000000   0.000000  -0.000000
     5  H   -0.000001   0.000000  -0.000000   0.000000   0.000000  -0.000000
     6  H    0.000010   0.000006   0.000002  -0.000001   0.000000   0.000000
     7  C   -0.000021  -0.000012   0.000000   0.000000  -0.000000   0.000000
     8  H    0.000009   0.000002   0.000006  -0.000001   0.000000   0.000000
     9  H   -0.000001  -0.000000   0.000000   0.000000  -0.000000   0.000000
    10  C    0.002348   0.000114   0.000111  -0.000489   0.000019   0.000019
    11  H    0.000081  -0.000023   0.000044  -0.000013  -0.000015   0.000005
    12  H    0.000078   0.000044  -0.000023  -0.000013   0.000005  -0.000015
    13  C   -0.043007  -0.005054  -0.005111   0.000833   0.000163   0.000161
    14  H   -0.000303   0.002612  -0.000183   0.000085  -0.000034   0.000053
    15  H   -0.000327  -0.000190   0.002633   0.000085   0.000053  -0.000034
    16  C   -0.000000   0.000000   0.000000   0.000000   0.000000   0.000000
    17  H    0.000000   0.000000  -0.000000   0.000000   0.000000  -0.000000
    18  H    0.000000  -0.000000  -0.000000  -0.000000  -0.000000  -0.000000
    19  H    0.000000  -0.000000   0.000000   0.000000  -0.000000   0.000000
    20  C   -0.000002   0.000000  -0.000000  -0.000000   0.000000  -0.000000
    21  H   -0.000016  -0.000012   0.000001  -0.000000  -0.000000   0.000000
    22  H   -0.000000   0.000000  -0.000000  -0.000000  -0.000000  -0.000000
    23  H    0.000000  -0.000000   0.000000   0.000000   0.000000   0.000000
    24  C   -0.000003  -0.000000   0.000000  -0.000000  -0.000000   0.000000
    25  H   -0.000000  -0.000000   0.000000  -0.000000  -0.000000  -0.000000
    26  H   -0.000017   0.000001  -0.000013  -0.000000   0.000000  -0.000000
    27  H    0.000000   0.000000  -0.000000   0.000000   0.000000   0.000000
    28  C    0.267202  -0.038000  -0.038035  -0.038762  -0.004986  -0.004964
    29  H   -0.034070   0.006606  -0.003797  -0.000844   0.002181   0.000079
    30  H   -0.033977  -0.003808   0.006602  -0.000830   0.000080   0.002174
    31  C    5.211287   0.360551   0.360607   0.274094  -0.037717  -0.037692
    32  H    0.360551   0.611114  -0.029301  -0.033932   0.007018  -0.004219
    33  H    0.360607  -0.029301   0.611254  -0.033983  -0.004210   0.007021
    34  C    0.274094  -0.033932  -0.033983   5.191339   0.361767   0.361743
    35  H   -0.037717   0.007018  -0.004210   0.361767   0.613945  -0.029659
    36  H   -0.037692  -0.004219   0.007021   0.361743  -0.029659   0.613834
    37  C   -0.042077  -0.002061  -0.002068   0.280602  -0.035680  -0.035644
    38  H   -0.004747   0.002385   0.000051  -0.037564   0.007195  -0.004385
    39  H   -0.004768   0.000052   0.002393  -0.037578  -0.004383   0.007194
    40  C    0.003651   0.000033   0.000034  -0.045437  -0.002588  -0.002582
    41  H    0.000019  -0.000032   0.000052  -0.004183   0.002685  -0.000053
    42  H    0.000019   0.000052  -0.000032  -0.004176  -0.000053   0.002682
    43  C   -0.000456  -0.000002  -0.000002   0.004665   0.000006   0.000006
    44  H    0.000003  -0.000013   0.000005  -0.000015  -0.000016   0.000030
    45  H    0.000014   0.000000   0.000000  -0.000369   0.000002   0.000002
    46  H    0.000003   0.000005  -0.000013  -0.000015   0.000030  -0.000016
    47  P   -0.000525   0.000035   0.000036  -0.000008   0.000000   0.000000
              37         38         39         40         41         42
     1  C    0.000000   0.000000   0.000000  -0.000000  -0.000000  -0.000000
     2  H    0.000000  -0.000000  -0.000000   0.000000  -0.000000   0.000000
     3  H    0.000000  -0.000000  -0.000000   0.000000   0.000000  -0.000000
     4  C   -0.000000  -0.000000  -0.000000   0.000000  -0.000000   0.000000
     5  H   -0.000000   0.000000   0.000000   0.000000  -0.000000  -0.000000
     6  H    0.000000  -0.000000   0.000000  -0.000000  -0.000000   0.000000
     7  C   -0.000000  -0.000000  -0.000000   0.000000   0.000000  -0.000000
     8  H    0.000000   0.000000  -0.000000  -0.000000   0.000000  -0.000000
     9  H   -0.000000   0.000000   0.000000   0.000000  -0.000000  -0.000000
    10  C   -0.000001   0.000000   0.000000  -0.000000   0.000000   0.000000
    11  H    0.000001  -0.000000   0.000000  -0.000000   0.000000  -0.000000
    12  H    0.000001   0.000000  -0.000000  -0.000000  -0.000000   0.000000
    13  C   -0.000547   0.000017   0.000017  -0.000003  -0.000000  -0.000000
    14  H    0.000002  -0.000017   0.000007   0.000000  -0.000000   0.000000
    15  H    0.000002   0.000007  -0.000017   0.000000   0.000000  -0.000000
    16  C   -0.000000   0.000000   0.000000   0.000000  -0.000000  -0.000000
    17  H   -0.000000  -0.000000  -0.000000   0.000000   0.000000  -0.000000
    18  H    0.000000   0.000000   0.000000  -0.000000   0.000000   0.000000
    19  H   -0.000000  -0.000000  -0.000000   0.000000  -0.000000   0.000000
    20  C    0.000000   0.000000   0.000000  -0.000000  -0.000000   0.000000
    21  H   -0.000000   0.000000   0.000000  -0.000000  -0.000000  -0.000000
    22  H   -0.000000  -0.000000   0.000000   0.000000  -0.000000  -0.000000
    23  H    0.000000   0.000000  -0.000000   0.000000   0.000000  -0.000000
    24  C    0.000000   0.000000   0.000000  -0.000000   0.000000  -0.000000
    25  H   -0.000000   0.000000  -0.000000   0.000000  -0.000000  -0.000000
    26  H   -0.000000   0.000000   0.000000  -0.000000  -0.000000  -0.000000
    27  H    0.000000  -0.000000   0.000000   0.000000  -0.000000   0.000000
    28  C    0.002981   0.000116   0.000117  -0.000403   0.000014   0.000014
    29  H    0.000065  -0.000032   0.000053   0.000002  -0.000015   0.000005
    30  H    0.000064   0.000053  -0.000032   0.000003   0.000005  -0.000015
    31  C   -0.042077  -0.004747  -0.004768   0.003651   0.000019   0.000019
    32  H   -0.002061   0.002385   0.000052   0.000033  -0.000032   0.000052
    33  H   -0.002068   0.000051   0.002393   0.000034   0.000052  -0.000032
    34  C    0.280602  -0.037564  -0.037578  -0.045437  -0.004183  -0.004176
    35  H   -0.035680   0.007195  -0.004383  -0.002588   0.002685  -0.000053
    36  H   -0.035644  -0.004385   0.007194  -0.002582  -0.000053   0.002682
    37  C    5.180669   0.360522   0.360536   0.289613  -0.039760  -0.039749
    38  H    0.360522   0.621675  -0.031472  -0.035808   0.007544  -0.005157
    39  H    0.360536  -0.031472   0.621748  -0.035823  -0.005156   0.007544
    40  C    0.289613  -0.035808  -0.035823   5.133189   0.367470   0.367464
    41  H   -0.039760   0.007544  -0.005156   0.367470   0.619995  -0.032760
    42  H   -0.039749  -0.005157   0.007544   0.367464  -0.032760   0.619946
    43  C   -0.049752  -0.002780  -0.002784   0.296626  -0.035417  -0.035406
    44  H   -0.004282   0.003218  -0.000249  -0.037903   0.007079  -0.004886
    45  H    0.007199  -0.000089  -0.000089  -0.034317  -0.004116  -0.004114
    46  H   -0.004288  -0.000248   0.003221  -0.037910  -0.004886   0.007079
    47  P   -0.000000   0.000000   0.000000  -0.000000   0.000000   0.000000
              43         44         45         46         47
     1  C    0.000000  -0.000000  -0.000000  -0.000000   0.281928
     2  H    0.000000   0.000000  -0.000000   0.000000  -0.020305
     3  H    0.000000   0.000000  -0.000000   0.000000  -0.020322
     4  C   -0.000000  -0.000000   0.000000   0.000000   0.285110
     5  H   -0.000000  -0.000000   0.000000  -0.000000  -0.020255
     6  H    0.000000   0.000000  -0.000000  -0.000000  -0.021096
     7  C   -0.000000   0.000000   0.000000  -0.000000   0.285100
     8  H    0.000000  -0.000000  -0.000000   0.000000  -0.021106
     9  H   -0.000000  -0.000000   0.000000  -0.000000  -0.020259
    10  C   -0.000000  -0.000000  -0.000000  -0.000000   0.275052
    11  H    0.000000   0.000000  -0.000000  -0.000000  -0.021643
    12  H    0.000000  -0.000000  -0.000000   0.000000  -0.021636
    13  C   -0.000000  -0.000000   0.000000  -0.000000  -0.043106
    14  H    0.000000   0.000000   0.000000  -0.000000  -0.003284
    15  H    0.000000  -0.000000   0.000000   0.000000  -0.003486
    16  C   -0.000000  -0.000000   0.000000  -0.000000  -0.046589
    17  H    0.000000   0.000000   0.000000   0.000000  -0.002618
    18  H    0.000000  -0.000000  -0.000000  -0.000000   0.005322
    19  H    0.000000   0.000000   0.000000   0.000000  -0.002614
    20  C    0.000000  -0.000000  -0.000000   0.000000  -0.047732
    21  H   -0.000000  -0.000000   0.000000   0.000000  -0.003070
    22  H   -0.000000   0.000000   0.000000   0.000000   0.005323
    23  H    0.000000  -0.000000   0.000000   0.000000  -0.001999
    24  C    0.000000   0.000000  -0.000000  -0.000000  -0.047785
    25  H   -0.000000   0.000000   0.000000   0.000000   0.005324
    26  H   -0.000000   0.000000   0.000000  -0.000000  -0.003085
    27  H    0.000000   0.000000   0.000000  -0.000000  -0.001979
    28  C    0.000003  -0.000000  -0.000000  -0.000000  -0.001470
    29  H    0.000000  -0.000000   0.000000   0.000000   0.000146
    30  H    0.000000   0.000000   0.000000  -0.000000   0.000142
    31  C   -0.000456   0.000003   0.000014   0.000003  -0.000525
    32  H   -0.000002  -0.000013   0.000000   0.000005   0.000035
    33  H   -0.000002   0.000005   0.000000  -0.000013   0.000036
    34  C    0.004665  -0.000015  -0.000369  -0.000015  -0.000008
    35  H    0.000006  -0.000016   0.000002   0.000030   0.000000
    36  H    0.000006   0.000030   0.000002  -0.000016   0.000000
    37  C   -0.049752  -0.004282   0.007199  -0.004288  -0.000000
    38  H   -0.002780   0.003218  -0.000089  -0.000248   0.000000
    39  H   -0.002784  -0.000249  -0.000089   0.003221   0.000000
    40  C    0.296626  -0.037903  -0.034317  -0.037910  -0.000000
    41  H   -0.035417   0.007079  -0.004116  -0.004886   0.000000
    42  H   -0.035406  -0.004886  -0.004114   0.007079   0.000000
    43  C    5.085626   0.371857   0.373410   0.371858  -0.000000
    44  H    0.371857   0.600522  -0.025522  -0.029813  -0.000000
    45  H    0.373410  -0.025522   0.575637  -0.025527   0.000000
    46  H    0.371858  -0.029813  -0.025527   0.600559  -0.000000
    47  P   -0.000000  -0.000000   0.000000  -0.000000  13.840807
 Mulliken charges:
               1
     1  C   -0.318382
     2  H    0.187932
     3  H    0.187927
     4  C   -0.319668
     5  H    0.189975
     6  H    0.188150
     7  C   -0.319047
     8  H    0.188102
     9  H    0.189721
    10  C   -0.310183
    11  H    0.189341
    12  H    0.189565
    13  C   -0.282170
    14  H    0.151040
    15  H    0.150867
    16  C   -0.384872
    17  H    0.146480
    18  H    0.177692
    19  H    0.146477
    20  C   -0.384571
    21  H    0.147346
    22  H    0.177437
    23  H    0.146641
    24  C   -0.384532
    25  H    0.177448
    26  H    0.147322
    27  H    0.146696
    28  C   -0.240878
    29  H    0.136220
    30  H    0.136345
    31  C   -0.240229
    32  H    0.126028
    33  H    0.125932
    34  C   -0.237003
    35  H    0.124190
    36  H    0.124259
    37  C   -0.226348
    38  H    0.119517
    39  H    0.119470
    40  C   -0.225311
    41  H    0.121515
    42  H    0.121544
    43  C   -0.377457
    44  H    0.119984
    45  H    0.137878
    46  H    0.119962
    47  P    0.391646
 Sum of Mulliken charges =   1.00000
 Mulliken charges with hydrogens summed into heavy atoms:
               1
     1  C    0.057477
     4  C    0.058457
     7  C    0.058776
    10  C    0.068723
    13  C    0.019737
    16  C    0.085777
    20  C    0.086853
    24  C    0.086934
    28  C    0.031688
    31  C    0.011731
    34  C    0.011447
    37  C    0.012639
    40  C    0.017748
    43  C    0.000368
    47  P    0.391646
 Electronic spatial extent (au):  <R**2>=          10795.7104
 Charge=              1.0000 electrons
 Dipole moment (field-independent basis, Debye):
    X=            -15.1347    Y=              0.5017    Z=             -0.5327  Tot=             15.1524
 Quadrupole moment (field-independent basis, Debye-Ang):
   XX=            -37.5429   YY=            -91.8123   ZZ=            -91.1993
   XY=              4.0753   XZ=             -8.1108   YZ=             -0.6021
 Traceless Quadrupole moment (field-independent basis, Debye-Ang):
   XX=             35.9753   YY=            -18.2942   ZZ=            -17.6811
   XY=              4.0753   XZ=             -8.1108   YZ=             -0.6021
 Octapole moment (field-independent basis, Debye-Ang**2):
  XXX=             83.0942  YYY=           -278.8453  ZZZ=            439.2013  XYY=            102.9321
  XXY=            -95.1241  XXZ=            161.8878  XZZ=            123.9750  YZZ=            -74.6766
  YYZ=            146.3294  XYZ=            -18.7779
 Hexadecapole moment (field-independent basis, Debye-Ang**3):
 XXXX=          -6066.9629 YYYY=          -2255.1407 ZZZZ=          -4607.7404 XXXY=           -788.3602
 XXXZ=           1365.9842 YYYX=           -815.0969 YYYZ=           1076.2143 ZZZX=           1385.4374
 ZZZY=           1041.9413 XXYY=          -1532.3872 XXZZ=          -1912.5981 YYZZ=          -1128.9738
 XXYZ=            343.5873 YYXZ=            460.3497 ZZXY=           -236.1086
 N-N= 1.160524058744D+03 E-N=-4.390460238596D+03  KE= 8.906587553512D+02
 Breneman (CHELPG) radii used.
 Generate Potential Derived Charges using the Breneman model, NDens= 1.
 Grid spacing= 0.300 Box extension= 2.800
 NStep X,Y,Z=   62     46     49   Total possible points=      139748
 Number of Points to Fit=   24240

 **********************************************************************

          Electrostatic Properties Using The MP2 Density

 **********************************************************************

       Atomic Center    1 is at  -5.237916  0.074732 -0.048870
       Atomic Center    2 is at  -5.496220  1.134108 -0.131718
       Atomic Center    3 is at  -5.502322 -0.384455 -1.005473
       Atomic Center    4 is at  -2.873427  0.807972  1.619485
       Atomic Center    5 is at  -3.310039  0.247212  2.450545
       Atomic Center    6 is at  -1.791206  0.664424  1.680466
       Atomic Center    7 is at  -2.883219 -1.749726  0.147435
       Atomic Center    8 is at  -1.800386 -1.736739  0.298506
       Atomic Center    9 is at  -3.319436 -2.183769  1.051376
       Atomic Center   10 is at  -2.697210  0.820540 -1.359738
       Atomic Center   11 is at  -3.096302  1.839379 -1.374546
       Atomic Center   12 is at  -3.093846  0.318581 -2.247542
       Atomic Center   13 is at  -1.161420  0.832807 -1.376399
       Atomic Center   14 is at  -0.779091 -0.192968 -1.353121
       Atomic Center   15 is at  -0.781912  1.330949 -0.478209
       Atomic Center   16 is at  -5.987356 -0.590115  1.111988
       Atomic Center   17 is at  -5.755246 -0.119760  2.069329
       Atomic Center   18 is at  -7.062099 -0.494662  0.952500
       Atomic Center   19 is at  -5.760619 -1.655304  1.186489
       Atomic Center   20 is at  -3.259322 -2.562917 -1.096992
       Atomic Center   21 is at  -2.799914 -2.157784 -2.000497
       Atomic Center   22 is at  -2.906592 -3.588434 -0.981128
       Atomic Center   23 is at  -4.339954 -2.602868 -1.246722
       Atomic Center   24 is at  -3.240509  2.294711  1.698254
       Atomic Center   25 is at  -2.881430  2.708093  2.641500
       Atomic Center   26 is at  -2.781113  2.869345  0.891846
       Atomic Center   27 is at  -4.320401  2.450576  1.662011
       Atomic Center   28 is at  -0.613557  1.546205 -2.616676
       Atomic Center   29 is at  -0.999377  2.572104 -2.642973
       Atomic Center   30 is at  -0.994477  1.049593 -3.516823
       Atomic Center   31 is at   0.915845  1.573630 -2.655516
       Atomic Center   32 is at   1.298511  0.545956 -2.626461
       Atomic Center   33 is at   1.293281  2.067826 -1.751787
       Atomic Center   34 is at   1.471406  2.285763 -3.891044
       Atomic Center   35 is at   1.087345  3.312866 -3.920574
       Atomic Center   36 is at   1.093518  1.791782 -4.794639
       Atomic Center   37 is at   3.000648  2.315749 -3.932290
       Atomic Center   38 is at   3.385069  1.288410 -3.902371
       Atomic Center   39 is at   3.378770  2.809289 -3.028104
       Atomic Center   40 is at   3.560070  3.027639 -5.166605
       Atomic Center   41 is at   3.175037  4.053735 -5.195646
       Atomic Center   42 is at   3.181613  2.533836 -6.069319
       Atomic Center   43 is at   5.089009  3.052746 -5.198702
       Atomic Center   44 is at   5.500123  2.038763 -5.203774
       Atomic Center   45 is at   5.460308  3.566085 -6.088775
       Atomic Center   46 is at   5.493407  3.570026 -4.323441
       Atomic Center   47 is at  -3.422074 -0.010216  0.086666
   24240 points will be used for fitting atomic charges
 Fitting point charges to electrostatic potential
 The dipole moment will be constrained to the correct value
 Charges from ESP fit, RMS=   0.00201 RRMS=   0.02056:
 ESP charges:
               1
     1  C    0.077358
     2  H    0.050086
     3  H    0.049610
     4  C    0.071803
     5  H    0.043504
     6  H    0.037258
     7  C    0.065790
     8  H    0.036490
     9  H    0.043704
    10  C   -0.159020
    11  H    0.080481
    12  H    0.080912
    13  C    0.100309
    14  H    0.017764
    15  H    0.017847
    16  C   -0.223037
    17  H    0.084514
    18  H    0.096774
    19  H    0.084281
    20  C   -0.163277
    21  H    0.076151
    22  H    0.085969
    23  H    0.064614
    24  C   -0.194235
    25  H    0.094018
    26  H    0.084659
    27  H    0.072493
    28  C   -0.095456
    29  H    0.038273
    30  H    0.038391
    31  C    0.033805
    32  H   -0.007369
    33  H   -0.007757
    34  C    0.028300
    35  H   -0.008589
    36  H   -0.008822
    37  C   -0.018429
    38  H    0.003847
    39  H    0.003512
    40  C    0.176166
    41  H   -0.031907
    42  H   -0.031199
    43  C   -0.223754
    44  H    0.049239
    45  H    0.061253
    46  H    0.049668
    47  P    0.174011
 Sum of ESP charges =   1.00000
 ESP charges with hydrogens summed into heavy atoms:
               1
     1  C    0.177054
     4  C    0.152565
     7  C    0.145984
    10  C    0.002374
    13  C    0.135919
    16  C    0.042531
    20  C    0.063457
    24  C    0.056935
    28  C   -0.018793
    31  C    0.018679
    34  C    0.010889
    37  C   -0.011070
    40  C    0.113060
    43  C   -0.063593
    47  P    0.174011
 Charge=   1.00000 Dipole=   -15.1347     0.5017    -0.5327 Tot=    15.1524
 -----------------------------------------------------------------

              Electrostatic Properties (Atomic Units)

 -----------------------------------------------------------------
    Center     Electric         -------- Electric Field --------
               Potential          X             Y             Z
 -----------------------------------------------------------------
    1 Atom    -14.576322
    2 Atom     -0.932264
    3 Atom     -0.932258
    4 Atom    -14.576544
    5 Atom     -0.932402
    6 Atom     -0.932686
    7 Atom    -14.576521
    8 Atom     -0.932667
    9 Atom     -0.932372
   10 Atom    -14.582028
   11 Atom     -0.934234
   12 Atom     -0.934222
   13 Atom    -14.608044
   14 Atom     -0.978168
   15 Atom     -0.978185
   16 Atom    -14.608901
   17 Atom     -0.967561
   18 Atom     -0.969953
   19 Atom     -0.967558
   20 Atom    -14.609041
   21 Atom     -0.967872
   22 Atom     -0.970088
   23 Atom     -0.967619
   24 Atom    -14.609034
   25 Atom     -0.970086
   26 Atom     -0.967856
   27 Atom     -0.967615
   28 Atom    -14.640446
   29 Atom     -1.007621
   30 Atom     -1.007626
   31 Atom    -14.660253
   32 Atom     -1.026668
   33 Atom     -1.026664
   34 Atom    -14.675828
   35 Atom     -1.042261
   36 Atom     -1.042263
   37 Atom    -14.687362
   38 Atom     -1.053331
   39 Atom     -1.053329
   40 Atom    -14.693603
   41 Atom     -1.062906
   42 Atom     -1.062907
   43 Atom    -14.709762
   44 Atom     -1.064623
   45 Atom     -1.064942
   46 Atom     -1.064622
   47 Atom    -53.920961
 -----------------------------------------------------------------
 1\1\GINC-CX1-100-2-3\SP\RMP2-Full\CC-pVTZ\C14H32P1\FDP18\23-Mar-2021\0
 \\# RMP2=(semidirect,full)/cc-pVTZ int=ultrafine symmetry=none scf=con
 ver=11 Density=current pop=(minimal,CHELPG,Dipole)\\Title Card Require
 d\\1,1\C,0,-5.2379164676,0.07473174,-0.0488699508\H,0,-5.4962196773,1.
 1341081372,-0.1317181197\H,0,-5.5023221661,-0.3844549021,-1.0054725286
 \C,0,-2.8734265332,0.8079720594,1.6194853121\H,0,-3.3100386569,0.24721
 15921,2.4505454662\H,0,-1.7912063349,0.6644240464,1.680466304\C,0,-2.8
 832190822,-1.7497255805,0.1474349462\H,0,-1.8003858255,-1.7367391873,0
 .2985060476\H,0,-3.3194364588,-2.1837690813,1.0513763972\C,0,-2.697209
 8026,0.82054049,-1.3597377463\H,0,-3.0963020912,1.8393790361,-1.374546
 1528\H,0,-3.0938456243,0.3185807335,-2.24754151\C,0,-1.1614202262,0.83
 28068195,-1.3763990232\H,0,-0.7790905053,-0.1929684323,-1.353121239\H,
 0,-0.78191185,1.3309493126,-0.4782085681\C,0,-5.9873555159,-0.59011470
 38,1.1119880131\H,0,-5.7552457878,-0.1197596694,2.0693287025\H,0,-7.06
 2099121,-0.4946622761,0.9524995545\H,0,-5.7606186071,-1.6553038311,1.1
 864890272\C,0,-3.2593224585,-2.562916759,-1.0969917966\H,0,-2.79991406
 68,-2.1577841842,-2.00049704\H,0,-2.9065916283,-3.5884341531,-0.981128
 4485\H,0,-4.3399537426,-2.6028676748,-1.2467217416\C,0,-3.2405085615,2
 .2947113632,1.6982544734\H,0,-2.8814299878,2.7080932174,2.6415000814\H
 ,0,-2.7811130976,2.8693449484,0.8918462297\H,0,-4.3204007528,2.4505759
 597,1.6620108405\C,0,-0.6135567748,1.5462051384,-2.6166761661\H,0,-0.9
 993768804,2.5721039144,-2.6429730418\H,0,-0.9944770363,1.0495933606,-3
 .5168228882\C,0,0.9158447763,1.5736304306,-2.6555156341\H,0,1.29851081
 42,0.545956063,-2.6264611889\H,0,1.2932806949,2.0678257032,-1.75178739
 33\C,0,1.4714063008,2.2857630256,-3.8910442061\H,0,1.0873446053,3.3128
 658601,-3.9205736182\H,0,1.0935176615,1.7917815563,-4.7946387398\C,0,3
 .0006479355,2.3157490607,-3.932290407\H,0,3.3850687226,1.288409543,-3.
 9023712397\H,0,3.3787701212,2.8092886757,-3.0281038414\C,0,3.560070201
 ,3.0276387643,-5.1666053035\H,0,3.1750368506,4.0537348764,-5.195645992
 7\H,0,3.1816134682,2.5338358218,-6.069318755\C,0,5.0890090992,3.052746
 403,-5.1987022951\H,0,5.5001227247,2.0387625155,-5.2037743773\H,0,5.46
 03080264,3.5660854716,-6.0887751901\H,0,5.4934070905,3.5700262753,-4.3
 234407401\P,0,-3.4220737715,-0.0102164799,0.0866664881\\Version=ES64L-
 G09RevE.01\HF=-889.5766122\MP2=-892.4646704\RMSD=3.132e-12\Dipole=-3.5
 013122,-1.4163859,2.4489169\Quadrupole=26.7467415,-13.6012664,-13.1454
 751,3.0298865,-6.0302061,-0.4476356\PG=Unknown\\@


 THE MOST BEAUTIFUL EXPERIENCE WE CAN HAVE IS THE MYSTERIOUS.
 IT IS THE FUNDAMENTAL EMOTION WHICH STANDS AT AT THE CRADLE 
 OF TRUE ART AND TRUE SCIENCE.

                                    -- ALBERT EINSTEIN
 Job cpu time:       6 days 17 hours 43 minutes  9.3 seconds.
 File lengths (MBytes):  RWF= 599346 Int=      0 D2E=      0 Chk=     63 Scr=      1
 Normal termination of Gaussian 09 at Tue Mar 23 18:33:17 2021.
