 Entering Gaussian System, Link 0=g09
 Initial command:
 /apps/gaussian/g09_e01/g09/l1.exe "/rds/general/ephemeral/user/fdp18/ephemeral/gaussian/Gau-863557.inp" -scrdir="/rds/general/ephemeral/user/fdp18/ephemeral/gaussian/"
 Entering Link 1 = /apps/gaussian/g09_e01/g09/l1.exe PID=    863558.
  
 Copyright (c) 1988,1990,1992,1993,1995,1998,2003,2009,2015,
            Gaussian, Inc.  All Rights Reserved.
  
 This is part of the Gaussian(R) 09 program.  It is based on
 the Gaussian(R) 03 system (copyright 2003, Gaussian, Inc.),
 the Gaussian(R) 98 system (copyright 1998, Gaussian, Inc.),
 the Gaussian(R) 94 system (copyright 1995, Gaussian, Inc.),
 the Gaussian 92(TM) system (copyright 1992, Gaussian, Inc.),
 the Gaussian 90(TM) system (copyright 1990, Gaussian, Inc.),
 the Gaussian 88(TM) system (copyright 1988, Gaussian, Inc.),
 the Gaussian 86(TM) system (copyright 1986, Carnegie Mellon
 University), and the Gaussian 82(TM) system (copyright 1983,
 Carnegie Mellon University). Gaussian is a federally registered
 trademark of Gaussian, Inc.
  
 This software contains proprietary and confidential information,
 including trade secrets, belonging to Gaussian, Inc.
  
 This software is provided under written license and may be
 used, copied, transmitted, or stored only in accord with that
 written license.
  
 The following legend is applicable only to US Government
 contracts under FAR:
  
                    RESTRICTED RIGHTS LEGEND
  
 Use, reproduction and disclosure by the US Government is
 subject to restrictions as set forth in subparagraphs (a)
 and (c) of the Commercial Computer Software - Restricted
 Rights clause in FAR 52.227-19.
  
 Gaussian, Inc.
 340 Quinnipiac St., Bldg. 40, Wallingford CT 06492
  
  
 ---------------------------------------------------------------
 Warning -- This program may not be used in any manner that
 competes with the business of Gaussian, Inc. or will provide
 assistance to any competitor of Gaussian, Inc.  The licensee
 of this program is prohibited from giving any competitor of
 Gaussian, Inc. access to this program.  By using this program,
 the user acknowledges that Gaussian, Inc. is engaged in the
 business of creating and licensing software in the field of
 computational chemistry and represents and warrants to the
 licensee that it is not a competitor of Gaussian, Inc. and that
 it will not use this program in any manner prohibited above.
 ---------------------------------------------------------------
  

 Cite this work as:
 Gaussian 09, Revision E.01,
 M. J. Frisch, G. W. Trucks, H. B. Schlegel, G. E. Scuseria, 
 M. A. Robb, J. R. Cheeseman, G. Scalmani, V. Barone, B. Mennucci, 
 G. A. Petersson, H. Nakatsuji, M. Caricato, X. Li, H. P. Hratchian, 
 A. F. Izmaylov, J. Bloino, G. Zheng, J. L. Sonnenberg, M. Hada, 
 M. Ehara, K. Toyota, R. Fukuda, J. Hasegawa, M. Ishida, T. Nakajima, 
 Y. Honda, O. Kitao, H. Nakai, T. Vreven, J. A. Montgomery, Jr., 
 J. E. Peralta, F. Ogliaro, M. Bearpark, J. J. Heyd, E. Brothers, 
 K. N. Kudin, V. N. Staroverov, T. Keith, R. Kobayashi, J. Normand, 
 K. Raghavachari, A. Rendell, J. C. Burant, S. S. Iyengar, J. Tomasi, 
 M. Cossi, N. Rega, J. M. Millam, M. Klene, J. E. Knox, J. B. Cross, 
 V. Bakken, C. Adamo, J. Jaramillo, R. Gomperts, R. E. Stratmann, 
 O. Yazyev, A. J. Austin, R. Cammi, C. Pomelli, J. W. Ochterski, 
 R. L. Martin, K. Morokuma, V. G. Zakrzewski, G. A. Voth, 
 P. Salvador, J. J. Dannenberg, S. Dapprich, A. D. Daniels, 
 O. Farkas, J. B. Foresman, J. V. Ortiz, J. Cioslowski, 
 and D. J. Fox, Gaussian, Inc., Wallingford CT, 2013.
 
 ******************************************
 Gaussian 09:  ES64L-G09RevE.01 30-Nov-2015
                26-Mar-2021 
 ******************************************
 %nprocshared=48
 Will use up to   48 processors via shared memory.
 %mem=80GB
 %chk=P2221_MP2.chk
 ----------------------------------------------------------------------
 # RMP2=(semidirect,full)/cc-pVTZ int=ultrafine symmetry=none scf=conve
 r=11 Density=current pop=(minimal,CHELPG,Dipole)
 ----------------------------------------------------------------------
 1/30=1,38=1/1;
 2/12=2,15=3,17=6,18=5,40=1/2;
 3/5=16,6=1,11=1,16=1,25=1,30=1,71=1,75=-5,116=1/1,2,3;
 4//1;
 5/5=2,6=11,38=5/2;
 8/6=4,10=90/1;
 9/15=1,16=-2/6;
 10/5=1,13=10,31=1/2;
 6/7=2,8=2,9=2,10=2,15=24,20=3,22=-1/1,2;
 99/5=1,9=1/99;
 -------------------
 Title Card Required
 -------------------
 Symbolic Z-matrix:
 Charge =  1 Multiplicity = 1
 P                    -0.52342   0.93075   2.19521 
 C                    -1.58979  -0.38789   1.52967 
 C                     0.83706   0.15974   3.12973 
 C                    -1.48651   2.03168   3.2794 
 C                     0.15399   1.9104    0.83083 
 H                    -1.87886  -1.01605   2.37693 
 H                    -0.9559   -1.00368   0.88431 
 H                     1.37671  -0.47794   2.4229 
 H                     0.37587  -0.50646   3.86423 
 H                    -2.24706   2.50565   2.65271 
 H                    -0.80944   2.8271    3.60306 
 H                     0.74112   1.26995   0.17026 
 H                     0.79321   2.70248   1.2229 
 H                    -0.65779   2.36417   0.2609 
 C                     1.78201   1.16003   3.8076 
 H                     1.26268   1.77445   4.54521 
 H                     2.56882   0.61528   4.33065 
 H                     2.26629   1.8196    3.08527 
 C                    -2.82306   0.12163   0.77302 
 H                    -3.39507  -0.72918   0.40112 
 H                    -3.48352   0.70432   1.41767 
 H                    -2.55038   0.73359  -0.08869 
 C                    -2.11988   1.31673   4.47939 
 H                    -2.67717   2.03784   5.07833 
 H                    -2.81968   0.53915   4.16743 
 H                    -1.36722   0.8641    5.1277 
 
                          Input orientation:                          
 ---------------------------------------------------------------------
 Center     Atomic      Atomic             Coordinates (Angstroms)
 Number     Number       Type             X           Y           Z
 ---------------------------------------------------------------------
      1         15           0       -0.523424    0.930753    2.195210
      2          6           0       -1.589788   -0.387894    1.529673
      3          6           0        0.837058    0.159742    3.129726
      4          6           0       -1.486507    2.031676    3.279402
      5          6           0        0.153992    1.910397    0.830831
      6          1           0       -1.878856   -1.016049    2.376928
      7          1           0       -0.955899   -1.003678    0.884315
      8          1           0        1.376708   -0.477943    2.422903
      9          1           0        0.375871   -0.506461    3.864232
     10          1           0       -2.247061    2.505651    2.652706
     11          1           0       -0.809441    2.827098    3.603058
     12          1           0        0.741117    1.269951    0.170262
     13          1           0        0.793211    2.702475    1.222897
     14          1           0       -0.657789    2.364170    0.260897
     15          6           0        1.782009    1.160034    3.807602
     16          1           0        1.262684    1.774450    4.545206
     17          1           0        2.568820    0.615283    4.330645
     18          1           0        2.266292    1.819596    3.085268
     19          6           0       -2.823059    0.121632    0.773025
     20          1           0       -3.395069   -0.729181    0.401119
     21          1           0       -3.483519    0.704320    1.417674
     22          1           0       -2.550382    0.733586   -0.088692
     23          6           0       -2.119878    1.316730    4.479392
     24          1           0       -2.677166    2.037837    5.078332
     25          1           0       -2.819676    0.539147    4.167433
     26          1           0       -1.367221    0.864105    5.127697
 ---------------------------------------------------------------------
                    Distance matrix (angstroms):
                    1          2          3          4          5
     1  P    0.000000
     2  C    1.821785   0.000000
     3  C    1.821727   2.957981   0.000000
     4  C    1.820724   2.987732   2.987556   0.000000
     5  C    1.811111   2.968382   2.969223   2.949821   0.000000
     6  H    2.379129   1.093609   3.053748   3.202660   3.884195
     7  H    2.376447   1.094299   3.100018   3.902738   3.118741
     8  H    2.376293   3.099365   1.094287   3.902535   3.119918
     9  H    2.379065   3.054183   1.093627   3.201971   3.884836
    10  H    2.379187   3.172667   3.904180   1.093546   3.072232
    11  H    2.379068   3.904361   3.170140   1.093557   3.074701
    12  H    2.411335   3.166950   3.162309   3.899909   1.091438
    13  H    2.412036   3.914483   3.178586   3.142658   1.090736
    14  H    2.411287   3.170531   3.914620   3.147808   1.090745
    15  C    2.822658   4.353625   1.533959   3.423733   3.474859
    16  H    3.069933   4.680359   2.189068   3.037512   3.878693
    17  H    3.771151   5.113299   2.156090   4.422325   4.444931
    18  H    3.060190   4.707679   2.190845   3.763797   3.090719
    19  C    2.822341   1.533979   4.353383   3.422947   3.473594
    20  H    3.771006   2.156189   5.113353   4.421476   4.443856
    21  H    3.068876   2.188994   4.679217   3.035781   3.876918
    22  H    3.060007   2.190791   4.707681   3.763101   3.089344
    23  C    2.813384   3.447837   3.450172   1.533715   4.339922
    24  H    3.765187   4.433908   4.435546   2.157279   5.106169
    25  H    3.052179   3.054473   3.820011   2.189425   4.675034
    26  H    3.052199   3.816125   3.057263   2.189440   4.676738
                    6          7          8          9         10
     6  H    0.000000
     7  H    1.754964   0.000000
     8  H    3.300055   2.843362   0.000000
     9  H    2.748735   3.301627   1.754970   0.000000
    10  H    3.551620   4.136387   4.699611   4.173774   0.000000
    11  H    4.173346   4.699772   4.134647   3.547646   1.753068
    12  H    4.118184   2.925598   2.921216   4.115151   4.076603
    13  H    4.722198   4.112127   3.448992   4.177092   3.365464
    14  H    4.170668   3.438010   4.109872   4.721546   2.875161
    15  C    4.492671   4.552296   2.182803   2.181201   4.402030
    16  H    4.728381   5.103159   3.096844   2.540220   4.053951
    17  H    5.124459   5.188630   2.501151   2.506966   5.438904
    18  H    5.071970   4.816388   2.551230   3.096938   4.585645
    19  C    2.181363   2.182886   4.551882   4.492573   3.090069
    20  H    2.506994   2.501674   5.188505   5.124718   4.105083
    21  H    2.540627   3.096868   5.101964   4.727212   2.509767
    22  H    3.097007   2.550921   4.816424   5.072108   3.278336
    23  C    3.149651   4.434379   4.435776   3.151382   2.183229
    24  H    4.154648   5.459244   5.460251   4.155541   2.507489
    25  H    2.551408   4.078337   4.656984   3.375907   2.547435
    26  H    3.370976   4.654470   4.079970   2.552090   3.097478
                   11         12         13         14         15
    11  H    0.000000
    12  H    4.075908   0.000000
    13  H    2.872141   1.778448   0.000000
    14  H    3.377476   1.778333   1.773498   0.000000
    15  C    3.088131   3.784941   3.168209   4.470087   0.000000
    16  H    2.507870   4.434714   3.481289   4.731944   1.091450
    17  H    4.102945   4.591065   4.143340   5.480189   1.090596
    18  H    3.277698   3.335495   2.533352   4.101693   1.091476
    19  C    4.402646   3.792797   4.465483   3.159057   5.611915
    20  H    5.439209   4.599768   5.476611   4.132938   6.478842
    21  H    4.053737   4.441118   4.724509   3.475339   5.800450
    22  H    4.587231   3.344953   4.095901   2.522483   5.842309
    23  C    2.183212   5.172628   4.583790   4.585905   3.962395
    24  H    2.507541   6.030212   5.229688   5.233742   4.719060
    25  H    3.097464   5.402842   5.138408   4.823431   4.657304
    26  H    2.547348   5.402404   4.826442   5.141909   3.427517
                   16         17         18         19         20
    16  H    0.000000
    17  H    1.759459   0.000000
    18  H    1.772198   1.758652   0.000000
    19  C    5.801246   6.478635   5.842178   0.000000
    20  H    6.718354   7.267512   6.764017   1.090592   0.000000
    21  H    5.783864   6.717451   6.089749   1.091470   1.759582
    22  H    6.090639   6.763931   5.869735   1.091511   1.758720
    23  C    3.414025   4.743211   4.629789   3.957256   4.737528
    24  H    3.984472   5.486626   5.334577   4.714743   5.481614
    25  H    4.281863   5.391505   5.355157   3.419991   4.015576
    26  H    2.843313   4.023633   4.276319   4.651226   5.384354
                   21         22         23         24         25
    21  H    0.000000
    22  H    1.772213   0.000000
    23  C    3.407151   4.625233   0.000000
    24  H    3.978554   5.330599   1.090547   0.000000
    25  H    2.833575   4.269066   1.091637   1.759579   0.000000
    26  H    4.274169   5.350479   1.091633   1.759556   1.771251
                   26
    26  H    0.000000
 Symmetry turned off by external request.
 Stoichiometry    C7H18P
 Rotational constants (GHZ):      1.8864248      1.2694544      1.0116175
 Standard basis: CC-pVTZ (5D, 7F)
   496 basis functions,   765 primitive gaussians,   554 cartesian basis functions
    37 alpha electrons       37 beta electrons
       nuclear repulsion energy       515.8537174769 Hartrees.
 NAtoms=   26 NActive=   26 NUniq=   26 SFac= 1.00D+00 NAtFMM=   60 NAOKFM=F Big=F
 Integral buffers will be    131072 words long.
 Raffenetti 1 integral format.
 Two-electron integral symmetry is turned off.
 One-electron integrals computed using PRISM.
 NBasis=   496 RedAO= T EigKep=  4.10D-04  NBF=   496
 NBsUse=   496 1.00D-06 EigRej= -1.00D+00 NBFU=   496
 ExpMin= 9.71D-02 ExpMax= 3.12D+05 ExpMxC= 9.87D+02 IAcc=3 IRadAn=         5 AccDes= 0.00D+00
 Harris functional with IExCor=  205 and IRadAn=       5 diagonalized for initial guess.
 HarFok:  IExCor=  205 AccDes= 0.00D+00 IRadAn=         5 IDoV= 1 UseB2=F ITyADJ=14
 ICtDFT=  3500011 ScaDFX=  1.000000  1.000000  1.000000  1.000000
 FoFCou: FMM=F IPFlag=           0 FMFlag=      100000 FMFlg1=           0
         NFxFlg=           0 DoJE=T BraDBF=F KetDBF=T FulRan=T
         wScrn=  0.000000 ICntrl=     500 IOpCl=  0 I1Cent=   200000004 NGrid=           0
         NMat0=    1 NMatS0=      1 NMatT0=    0 NMatD0=    1 NMtDS0=    0 NMtDT0=    0
 Symmetry not used in FoFCou.
 Keep R1 ints in memory in canonical form, NReq=7682528322.
 Requested convergence on RMS density matrix=1.00D-11 within 128 cycles.
 Requested convergence on MAX density matrix=1.00D-09.
 Requested convergence on             energy=1.00D-09.
 No special actions if energy rises.
 SCF Done:  E(RHF) =  -616.241503898     A.U. after   15 cycles
            NFock= 15  Conv=0.84D-11     -V/T= 2.0007
 Range of M.O.s used for correlation:     1   496
 NBasis=   496 NAE=    37 NBE=    37 NFC=     0 NFV=     0
 NROrb=    496 NOA=    37 NOB=    37 NVA=   459 NVB=   459

 **** Warning!!: The largest alpha MO coefficient is  0.13101545D+02

 Disk-based method using ON**2 memory for 37 occupieds at a time.
 Estimated scratch disk usage= 12141692392 words.
 Actual    scratch disk usage= 11097572840 words.
 JobTyp=1 Pass  1:  I=   1 to  37 NPSUse= 48 ParTrn=T ParDer=T DoDerP=T.
 (rs|ai) integrals will be sorted in core.
 Spin components of T(2) and E(2):
     alpha-alpha T2 =       0.5475886584D-01 E2=     -0.1680206433D+00
     alpha-beta  T2 =       0.3451781817D+00 E2=     -0.1214504494D+01
     beta-beta   T2 =       0.5475886584D-01 E2=     -0.1680206433D+00
 ANorm=    0.1206107754D+01
 E2 =    -0.1550545780D+01 EUMP2 =    -0.61779204967782D+03
          Differentiating once with respect to electric field.
                with respect to dipole field.
          Electric field/nuclear overlap derivatives assumed to be zero.
 Keep R1 ints in memory in canonical form, NReq=7681562461.
          There are     1 degrees of freedom in the 1st order CPHF.  IDoFFX=0 NUNeed=     1.
 LinEq1:  Iter=  0 NonCon=     1 RMS=1.81D-03 Max=3.06D-02 NDo=     1
 AX will form     1 AO Fock derivatives at one time.
 LinEq1:  Iter=  1 NonCon=     1 RMS=4.94D-04 Max=9.06D-03 NDo=     1
 LinEq1:  Iter=  2 NonCon=     1 RMS=1.07D-04 Max=1.89D-03 NDo=     1
 LinEq1:  Iter=  3 NonCon=     1 RMS=1.93D-05 Max=3.74D-04 NDo=     1
 LinEq1:  Iter=  4 NonCon=     1 RMS=5.55D-06 Max=9.07D-05 NDo=     1
 LinEq1:  Iter=  5 NonCon=     1 RMS=1.43D-06 Max=2.75D-05 NDo=     1
 LinEq1:  Iter=  6 NonCon=     1 RMS=3.13D-07 Max=5.94D-06 NDo=     1
 LinEq1:  Iter=  7 NonCon=     1 RMS=8.27D-08 Max=1.28D-06 NDo=     1
 LinEq1:  Iter=  8 NonCon=     1 RMS=2.18D-08 Max=4.70D-07 NDo=     1
 LinEq1:  Iter=  9 NonCon=     1 RMS=4.97D-09 Max=1.26D-07 NDo=     1
 LinEq1:  Iter= 10 NonCon=     1 RMS=1.26D-09 Max=2.75D-08 NDo=     1
 LinEq1:  Iter= 11 NonCon=     1 RMS=2.69D-10 Max=5.21D-09 NDo=     1
 LinEq1:  Iter= 12 NonCon=     1 RMS=7.36D-11 Max=1.13D-09 NDo=     1
 LinEq1:  Iter= 13 NonCon=     0 RMS=1.84D-11 Max=5.09D-10 NDo=     1
 Linear equations converged to 1.000D-10 1.000D-09 after    13 iterations.
 End of Minotr F.D. properties file   721 does not exist.
 End of Minotr F.D. properties file   722 does not exist.
 End of Minotr F.D. properties file   788 does not exist.

 **********************************************************************

            Population analysis using the MP2 density.

 **********************************************************************

 Alpha  occ. eigenvalues --  -80.17411 -11.40527 -11.40526 -11.40474 -11.40099
 Alpha  occ. eigenvalues --  -11.37343 -11.37292 -11.37289  -7.71310  -5.60829
 Alpha  occ. eigenvalues --   -5.60816  -5.60810  -1.25976  -1.19069  -1.18588
 Alpha  occ. eigenvalues --   -1.14610  -1.05481  -1.02069  -1.00245  -0.88872
 Alpha  occ. eigenvalues --   -0.80494  -0.80313  -0.78376  -0.75106  -0.74410
 Alpha  occ. eigenvalues --   -0.73445  -0.72092  -0.71746  -0.70962  -0.68355
 Alpha  occ. eigenvalues --   -0.67419  -0.66794  -0.66408  -0.65354  -0.63526
 Alpha  occ. eigenvalues --   -0.61414  -0.61386
 Alpha virt. eigenvalues --   -0.01713   0.00937   0.01326   0.01637   0.02747
 Alpha virt. eigenvalues --    0.03103   0.04568   0.06131   0.06265   0.06903
 Alpha virt. eigenvalues --    0.08020   0.09207   0.09444   0.09899   0.10721
 Alpha virt. eigenvalues --    0.10901   0.11215   0.12062   0.12068   0.13991
 Alpha virt. eigenvalues --    0.15053   0.16343   0.16886   0.16921   0.19231
 Alpha virt. eigenvalues --    0.20061   0.23491   0.24492   0.24558   0.26323
 Alpha virt. eigenvalues --    0.26870   0.27946   0.28400   0.28707   0.30180
 Alpha virt. eigenvalues --    0.33001   0.34064   0.34315   0.37032   0.38250
 Alpha virt. eigenvalues --    0.39258   0.40664   0.41607   0.41963   0.42961
 Alpha virt. eigenvalues --    0.44857   0.45531   0.46380   0.46604   0.46836
 Alpha virt. eigenvalues --    0.47392   0.48093   0.48507   0.49155   0.49182
 Alpha virt. eigenvalues --    0.50611   0.50896   0.51441   0.52876   0.52929
 Alpha virt. eigenvalues --    0.53469   0.54893   0.55030   0.55505   0.56211
 Alpha virt. eigenvalues --    0.56282   0.56850   0.57784   0.60351   0.61304
 Alpha virt. eigenvalues --    0.61807   0.65899   0.68740   0.70143   0.71179
 Alpha virt. eigenvalues --    0.72523   0.72858   0.74875   0.74908   0.76845
 Alpha virt. eigenvalues --    0.81180   0.82752   0.83430   0.83779   0.85565
 Alpha virt. eigenvalues --    0.85603   0.87626   0.87929   0.89361   0.91156
 Alpha virt. eigenvalues --    0.92705   0.93040   0.96758   0.96922   0.97913
 Alpha virt. eigenvalues --    0.98536   1.01797   1.01826   1.02767   1.03360
 Alpha virt. eigenvalues --    1.05117   1.05521   1.07158   1.07561   1.08036
 Alpha virt. eigenvalues --    1.08484   1.09649   1.10021   1.10324   1.11894
 Alpha virt. eigenvalues --    1.13213   1.13544   1.14719   1.14909   1.17520
 Alpha virt. eigenvalues --    1.18683   1.19380   1.19832   1.22069   1.22143
 Alpha virt. eigenvalues --    1.23308   1.24217   1.24547   1.25041   1.27233
 Alpha virt. eigenvalues --    1.27328   1.27716   1.28487   1.30382   1.31308
 Alpha virt. eigenvalues --    1.32772   1.33140   1.34468   1.34962   1.37179
 Alpha virt. eigenvalues --    1.37238   1.37857   1.39191   1.40140   1.41013
 Alpha virt. eigenvalues --    1.41425   1.42665   1.43676   1.44090   1.45231
 Alpha virt. eigenvalues --    1.47397   1.48179   1.49374   1.49656   1.50623
 Alpha virt. eigenvalues --    1.51366   1.51427   1.54245   1.55525   1.57097
 Alpha virt. eigenvalues --    1.57832   1.60327   1.63073   1.63466   1.64943
 Alpha virt. eigenvalues --    1.66525   1.67049   1.67312   1.69705   1.69958
 Alpha virt. eigenvalues --    1.71225   1.72545   1.75402   1.75719   1.80014
 Alpha virt. eigenvalues --    1.81328   1.84339   1.92426   1.93754   1.94109
 Alpha virt. eigenvalues --    1.95798   1.96387   1.99696   2.01679   2.01936
 Alpha virt. eigenvalues --    2.09436   2.31254   2.37230   2.39215   2.40977
 Alpha virt. eigenvalues --    2.42866   2.47370   2.49326   2.50309   2.51519
 Alpha virt. eigenvalues --    2.52076   2.53317   2.53601   2.57448   2.61138
 Alpha virt. eigenvalues --    2.61289   2.63397   2.64728   2.65085   2.66470
 Alpha virt. eigenvalues --    2.69617   2.70183   2.73518   2.74519   2.74815
 Alpha virt. eigenvalues --    2.75692   2.76375   2.78517   2.79324   2.79766
 Alpha virt. eigenvalues --    2.80775   2.82462   2.86272   2.89206   2.90607
 Alpha virt. eigenvalues --    2.91137   2.92048   2.93139   2.95229   2.96392
 Alpha virt. eigenvalues --    2.96463   2.98204   2.98847   2.99738   3.00578
 Alpha virt. eigenvalues --    3.01324   3.02803   3.03692   3.05709   3.06276
 Alpha virt. eigenvalues --    3.06980   3.08341   3.09979   3.10706   3.11155
 Alpha virt. eigenvalues --    3.11913   3.13693   3.15587   3.17242   3.18107
 Alpha virt. eigenvalues --    3.18566   3.19582   3.20113   3.21477   3.21641
 Alpha virt. eigenvalues --    3.23447   3.24408   3.25970   3.26100   3.26220
 Alpha virt. eigenvalues --    3.27136   3.28196   3.28219   3.29184   3.30166
 Alpha virt. eigenvalues --    3.30402   3.30911   3.31239   3.31973   3.32854
 Alpha virt. eigenvalues --    3.34314   3.34349   3.37249   3.39068   3.39238
 Alpha virt. eigenvalues --    3.40025   3.41554   3.44375   3.44400   3.46790
 Alpha virt. eigenvalues --    3.47217   3.47518   3.49133   3.50792   3.51038
 Alpha virt. eigenvalues --    3.51564   3.52581   3.52620   3.53101   3.56456
 Alpha virt. eigenvalues --    3.58373   3.60470   3.61173   3.61972   3.62686
 Alpha virt. eigenvalues --    3.63067   3.63237   3.64692   3.65416   3.66475
 Alpha virt. eigenvalues --    3.67972   3.68499   3.69462   3.71029   3.71240
 Alpha virt. eigenvalues --    3.72239   3.73131   3.73493   3.74252   3.75162
 Alpha virt. eigenvalues --    3.78067   3.78686   3.79514   3.80292   3.84016
 Alpha virt. eigenvalues --    3.84815   3.86284   3.87297   3.88340   3.88587
 Alpha virt. eigenvalues --    3.92299   3.93536   3.94297   3.95152   3.95834
 Alpha virt. eigenvalues --    3.97312   3.97809   3.98359   3.98718   4.01495
 Alpha virt. eigenvalues --    4.01813   4.03933   4.04967   4.06507   4.06632
 Alpha virt. eigenvalues --    4.07006   4.07658   4.07805   4.08805   4.09877
 Alpha virt. eigenvalues --    4.10717   4.12836   4.13490   4.14357   4.15653
 Alpha virt. eigenvalues --    4.16550   4.19505   4.19645   4.21094   4.21319
 Alpha virt. eigenvalues --    4.23987   4.25713   4.26246   4.26505   4.27045
 Alpha virt. eigenvalues --    4.27183   4.28208   4.28259   4.28880   4.30005
 Alpha virt. eigenvalues --    4.31548   4.32598   4.35724   4.35802   4.36723
 Alpha virt. eigenvalues --    4.38566   4.39229   4.39432   4.42986   4.43342
 Alpha virt. eigenvalues --    4.43817   4.44602   4.45276   4.45979   4.46642
 Alpha virt. eigenvalues --    4.48195   4.48277   4.50247   4.51718   4.52000
 Alpha virt. eigenvalues --    4.55999   4.57112   4.61386   4.62709   4.65543
 Alpha virt. eigenvalues --    4.65889   4.67347   4.68926   4.69904   4.78946
 Alpha virt. eigenvalues --    4.83486   4.88365   4.89731   4.91990   4.94044
 Alpha virt. eigenvalues --    4.95055   4.96380   4.96545   4.98808   5.02066
 Alpha virt. eigenvalues --    5.03755   5.05239   5.05324   5.06129   5.07799
 Alpha virt. eigenvalues --    5.08258   5.08531   5.09930   5.11874   5.12649
 Alpha virt. eigenvalues --    5.14819   5.14855   5.15906   5.17005   5.20661
 Alpha virt. eigenvalues --    5.21477   5.23677   5.27016   5.28236   5.29203
 Alpha virt. eigenvalues --    5.29961   5.33244   5.33567   5.41084   5.42731
 Alpha virt. eigenvalues --    5.43222   5.44460   5.44640   5.47158   5.49258
 Alpha virt. eigenvalues --    5.50871   5.50883   5.53029   5.53433   5.53737
 Alpha virt. eigenvalues --    5.56943   5.57932   5.58220   5.58484   5.61634
 Alpha virt. eigenvalues --    5.61672   5.61768   5.64510   5.65287   5.66627
 Alpha virt. eigenvalues --    5.68470   5.70459   5.72359   5.74884   5.78947
 Alpha virt. eigenvalues --    6.09426   6.10064   6.13769   6.13957   6.15339
 Alpha virt. eigenvalues --    6.17496   6.17760   6.19557   6.25399   6.26007
 Alpha virt. eigenvalues --    6.30033   6.55958  12.44591  12.72088  12.98412
 Alpha virt. eigenvalues --   13.51294  13.96204  14.00996  14.03106
          Condensed to atoms (all electrons):
               1          2          3          4          5          6
     1  P   13.727380   0.301669   0.301757   0.288407   0.299446  -0.020277
     2  C    0.301669   5.233295  -0.029604  -0.027876  -0.029486   0.345179
     3  C    0.301757  -0.029604   5.233072  -0.027896  -0.029501  -0.000243
     4  C    0.288407  -0.027876  -0.027896   5.263218  -0.030566  -0.002813
     5  C    0.299446  -0.029486  -0.029501  -0.030566   5.130073   0.002717
     6  H   -0.020277   0.345179  -0.000243  -0.002813   0.002717   0.538800
     7  H   -0.022499   0.348610  -0.000497   0.002783  -0.002449  -0.016711
     8  H   -0.022534  -0.000485   0.348642   0.002784  -0.002485  -0.000151
     9  H   -0.020254  -0.000253   0.345199  -0.002804   0.002722   0.001795
    10  H   -0.020381  -0.003882   0.002575   0.346454  -0.000067   0.000253
    11  H   -0.020328   0.002576  -0.003895   0.346503  -0.000111  -0.000116
    12  H   -0.023335  -0.001119  -0.001119   0.002773   0.357705  -0.000007
    13  H   -0.017970   0.002335  -0.002694  -0.001031   0.357138  -0.000087
    14  H   -0.017911  -0.002757   0.002333  -0.001056   0.357138  -0.000032
    15  C   -0.046355   0.001639   0.260474   0.002999   0.000340   0.000015
    16  H   -0.005587   0.000017  -0.035178   0.002855  -0.000123  -0.000007
    17  H    0.005294  -0.000113  -0.024897  -0.000111  -0.000107   0.000000
    18  H   -0.000991   0.000118  -0.038146  -0.001268   0.000834  -0.000001
    19  C   -0.046336   0.260424   0.001639   0.003034   0.000247  -0.025605
    20  H    0.005289  -0.024896  -0.000113  -0.000112  -0.000103  -0.004245
    21  H   -0.005587  -0.035218   0.000018   0.002865  -0.000117  -0.003422
    22  H   -0.000962  -0.038096   0.000116  -0.001272   0.000767   0.004924
    23  C   -0.048049   0.003110   0.003072   0.251789   0.001618  -0.000199
    24  H    0.005274  -0.000121  -0.000121  -0.024829  -0.000120   0.000025
    25  H   -0.003352   0.001924  -0.000797  -0.036145   0.000065  -0.001169
    26  H   -0.003276  -0.000816   0.001897  -0.036196   0.000066   0.000166
               7          8          9         10         11         12
     1  P   -0.022499  -0.022534  -0.020254  -0.020381  -0.020328  -0.023335
     2  C    0.348610  -0.000485  -0.000253  -0.003882   0.002576  -0.001119
     3  C   -0.000497   0.348642   0.345199   0.002575  -0.003895  -0.001119
     4  C    0.002783   0.002784  -0.002804   0.346454   0.346503   0.002773
     5  C   -0.002449  -0.002485   0.002722  -0.000067  -0.000111   0.357705
     6  H   -0.016711  -0.000151   0.001795   0.000253  -0.000116  -0.000007
     7  H    0.528157   0.001411  -0.000149  -0.000127  -0.000074   0.000808
     8  H    0.001411   0.528212  -0.016708  -0.000074  -0.000126   0.000820
     9  H   -0.000149  -0.016708   0.538775  -0.000116   0.000255  -0.000005
    10  H   -0.000127  -0.000074  -0.000116   0.528764  -0.018007  -0.000034
    11  H   -0.000074  -0.000126   0.000255  -0.018007   0.528526  -0.000037
    12  H    0.000808   0.000820  -0.000005  -0.000034  -0.000037   0.512454
    13  H   -0.000058  -0.000032  -0.000036  -0.000159   0.001212  -0.014305
    14  H   -0.000036  -0.000059  -0.000086   0.001198  -0.000150  -0.014262
    15  C    0.000009  -0.024141  -0.025614  -0.000019  -0.000058  -0.000059
    16  H   -0.000000   0.004802  -0.003425   0.000174  -0.001465   0.000010
    17  H   -0.000000  -0.004550  -0.004241   0.000010   0.000021  -0.000016
    18  H   -0.000008  -0.002695   0.004925  -0.000063   0.000247  -0.000124
    19  C   -0.024116   0.000010   0.000014  -0.000065  -0.000019  -0.000045
    20  H   -0.004532  -0.000000   0.000000   0.000022   0.000010  -0.000015
    21  H    0.004800  -0.000000  -0.000007  -0.001474   0.000174   0.000008
    22  H   -0.002710  -0.000007  -0.000001   0.000244  -0.000063  -0.000122
    23  C   -0.000040  -0.000040  -0.000201  -0.023790  -0.023743  -0.000122
    24  H    0.000010   0.000010   0.000024  -0.004205  -0.004202   0.000005
    25  H    0.000163  -0.000057   0.000164  -0.003403   0.004869  -0.000001
    26  H   -0.000058   0.000161  -0.001147   0.004874  -0.003403  -0.000001
              13         14         15         16         17         18
     1  P   -0.017970  -0.017911  -0.046355  -0.005587   0.005294  -0.000991
     2  C    0.002335  -0.002757   0.001639   0.000017  -0.000113   0.000118
     3  C   -0.002694   0.002333   0.260474  -0.035178  -0.024897  -0.038146
     4  C   -0.001031  -0.001056   0.002999   0.002855  -0.000111  -0.001268
     5  C    0.357138   0.357138   0.000340  -0.000123  -0.000107   0.000834
     6  H   -0.000087  -0.000032   0.000015  -0.000007   0.000000  -0.000001
     7  H   -0.000058  -0.000036   0.000009  -0.000000  -0.000000  -0.000008
     8  H   -0.000032  -0.000059  -0.024141   0.004802  -0.004550  -0.002695
     9  H   -0.000036  -0.000086  -0.025614  -0.003425  -0.004241   0.004925
    10  H   -0.000159   0.001198  -0.000019   0.000174   0.000010  -0.000063
    11  H    0.001212  -0.000150  -0.000058  -0.001465   0.000021   0.000247
    12  H   -0.014305  -0.014262  -0.000059   0.000010  -0.000016  -0.000124
    13  H    0.509074  -0.017111  -0.000255   0.000053  -0.000017   0.000306
    14  H   -0.017111   0.508903   0.000014  -0.000033   0.000010   0.000057
    15  C   -0.000255   0.000014   5.103027   0.374865   0.364927   0.374545
    16  H    0.000053  -0.000033   0.374865   0.562289  -0.020040  -0.026962
    17  H   -0.000017   0.000010   0.364927  -0.020040   0.524019  -0.019372
    18  H    0.000306   0.000057   0.374545  -0.026962  -0.019372   0.560775
    19  C    0.000012  -0.000234  -0.000136   0.000001   0.000003   0.000001
    20  H    0.000010  -0.000019   0.000003   0.000000  -0.000000   0.000000
    21  H   -0.000033   0.000052   0.000001  -0.000001   0.000000  -0.000001
    22  H    0.000055   0.000361   0.000001  -0.000001   0.000000  -0.000001
    23  C   -0.000001  -0.000004  -0.001952  -0.000424  -0.000007   0.000116
    24  H   -0.000003  -0.000003  -0.000003  -0.000008  -0.000002   0.000003
    25  H    0.000004  -0.000006   0.000101  -0.000055   0.000004  -0.000003
    26  H   -0.000006   0.000004  -0.000377   0.001691  -0.000012  -0.000051
              19         20         21         22         23         24
     1  P   -0.046336   0.005289  -0.005587  -0.000962  -0.048049   0.005274
     2  C    0.260424  -0.024896  -0.035218  -0.038096   0.003110  -0.000121
     3  C    0.001639  -0.000113   0.000018   0.000116   0.003072  -0.000121
     4  C    0.003034  -0.000112   0.002865  -0.001272   0.251789  -0.024829
     5  C    0.000247  -0.000103  -0.000117   0.000767   0.001618  -0.000120
     6  H   -0.025605  -0.004245  -0.003422   0.004924  -0.000199   0.000025
     7  H   -0.024116  -0.004532   0.004800  -0.002710  -0.000040   0.000010
     8  H    0.000010  -0.000000  -0.000000  -0.000007  -0.000040   0.000010
     9  H    0.000014   0.000000  -0.000007  -0.000001  -0.000201   0.000024
    10  H   -0.000065   0.000022  -0.001474   0.000244  -0.023790  -0.004205
    11  H   -0.000019   0.000010   0.000174  -0.000063  -0.023743  -0.004202
    12  H   -0.000045  -0.000015   0.000008  -0.000122  -0.000122   0.000005
    13  H    0.000012   0.000010  -0.000033   0.000055  -0.000001  -0.000003
    14  H   -0.000234  -0.000019   0.000052   0.000361  -0.000004  -0.000003
    15  C   -0.000136   0.000003   0.000001   0.000001  -0.001952  -0.000003
    16  H    0.000001   0.000000  -0.000001  -0.000001  -0.000424  -0.000008
    17  H    0.000003  -0.000000   0.000000   0.000000  -0.000007  -0.000002
    18  H    0.000001   0.000000  -0.000001  -0.000001   0.000116   0.000003
    19  C    5.103182   0.364902   0.374896   0.374508  -0.001989  -0.000003
    20  H    0.364902   0.523970  -0.020030  -0.019355  -0.000007  -0.000002
    21  H    0.374896  -0.020030   0.562266  -0.026960  -0.000436  -0.000007
    22  H    0.374508  -0.019355  -0.026960   0.560755   0.000119   0.000003
    23  C   -0.001989  -0.000007  -0.000436   0.000119   5.110108   0.364312
    24  H   -0.000003  -0.000002  -0.000007   0.000003   0.364312   0.523800
    25  H   -0.000389  -0.000012   0.001716  -0.000051   0.374300  -0.019629
    26  H    0.000104   0.000004  -0.000055  -0.000003   0.374291  -0.019616
              25         26
     1  P   -0.003352  -0.003276
     2  C    0.001924  -0.000816
     3  C   -0.000797   0.001897
     4  C   -0.036145  -0.036196
     5  C    0.000065   0.000066
     6  H   -0.001169   0.000166
     7  H    0.000163  -0.000058
     8  H   -0.000057   0.000161
     9  H    0.000164  -0.001147
    10  H   -0.003403   0.004874
    11  H    0.004869  -0.003403
    12  H   -0.000001  -0.000001
    13  H    0.000004  -0.000006
    14  H   -0.000006   0.000004
    15  C    0.000101  -0.000377
    16  H   -0.000055   0.001691
    17  H    0.000004  -0.000012
    18  H   -0.000003  -0.000051
    19  C   -0.000389   0.000104
    20  H   -0.000012   0.000004
    21  H    0.001716  -0.000055
    22  H   -0.000051  -0.000003
    23  C    0.374300   0.374291
    24  H   -0.019629  -0.019616
    25  H    0.561185  -0.027013
    26  H   -0.027013   0.561138
 Mulliken charges:
               1
     1  P    0.411468
     2  C   -0.306173
     3  C   -0.306093
     4  C   -0.322489
     5  C   -0.415641
     6  H    0.181211
     7  H    0.187311
     8  H    0.187292
     9  H    0.181171
    10  H    0.191299
    11  H    0.191406
    12  H    0.180146
    13  H    0.183597
    14  H    0.183691
    15  C   -0.383992
    16  H    0.146552
    17  H    0.179197
    18  H    0.147759
    19  C   -0.384041
    20  H    0.179232
    21  H    0.146551
    22  H    0.147749
    23  C   -0.381829
    24  H    0.179407
    25  H    0.147588
    26  H    0.147632
 Sum of Mulliken charges =   1.00000
 Mulliken charges with hydrogens summed into heavy atoms:
               1
     1  P    0.411468
     2  C    0.062350
     3  C    0.062370
     4  C    0.060215
     5  C    0.131792
    15  C    0.089515
    19  C    0.089492
    23  C    0.092798
 Electronic spatial extent (au):  <R**2>=           3382.4278
 Charge=              1.0000 electrons
 Dipole moment (field-independent basis, Debye):
    X=             -2.8986    Y=              4.4505    Z=             11.1322  Tot=             12.3343
 Quadrupole moment (field-independent basis, Debye-Ang):
   XX=            -44.9015   YY=            -47.5714   ZZ=            -22.2153
   XY=             -2.0515   XZ=             -5.4050   YZ=             11.4203
 Traceless Quadrupole moment (field-independent basis, Debye-Ang):
   XX=             -6.6721   YY=             -9.3420   ZZ=             16.0141
   XY=             -2.0515   XZ=             -5.4050   YZ=             11.4203
 Octapole moment (field-independent basis, Debye-Ang**2):
  XXX=            103.5495  YYY=           -138.9802  ZZZ=           -300.0106  XYY=             33.7192
  XXY=            -44.8129  XXZ=           -111.2650  XZZ=             23.5362  YZZ=            -13.1764
  YYZ=           -119.2770  XYZ=            -10.1654
 Hexadecapole moment (field-independent basis, Debye-Ang**3):
 XXXX=           -945.1981 YYYY=           -587.1529 ZZZZ=          -2316.8116 XXXY=             64.8158
 XXXZ=            195.6864 YYYX=             62.9385 YYYZ=           -392.5988 ZZZX=            152.0720
 ZZZY=           -287.3933 XXYY=           -248.8230 XXZZ=           -523.3196 YYZZ=           -493.7948
 XXYZ=           -111.1711 YYXZ=             49.4048 ZZXY=            -23.8100
 N-N= 5.158537174769D+02 E-N=-2.469830214856D+03  KE= 6.166718414385D+02
 Breneman (CHELPG) radii used.
 Generate Potential Derived Charges using the Breneman model, NDens= 1.
 Grid spacing= 0.300 Box extension= 2.800
 NStep X,Y,Z=   40     32     38   Total possible points=       48640
 Number of Points to Fit=   14799

 **********************************************************************

          Electrostatic Properties Using The MP2 Density

 **********************************************************************

       Atomic Center    1 is at  -0.523424  0.930753  2.195210
       Atomic Center    2 is at  -1.589788 -0.387894  1.529673
       Atomic Center    3 is at   0.837058  0.159742  3.129726
       Atomic Center    4 is at  -1.486507  2.031676  3.279402
       Atomic Center    5 is at   0.153992  1.910397  0.830831
       Atomic Center    6 is at  -1.878856 -1.016049  2.376928
       Atomic Center    7 is at  -0.955899 -1.003678  0.884315
       Atomic Center    8 is at   1.376708 -0.477943  2.422903
       Atomic Center    9 is at   0.375871 -0.506461  3.864232
       Atomic Center   10 is at  -2.247061  2.505651  2.652706
       Atomic Center   11 is at  -0.809441  2.827098  3.603058
       Atomic Center   12 is at   0.741117  1.269951  0.170262
       Atomic Center   13 is at   0.793211  2.702475  1.222897
       Atomic Center   14 is at  -0.657789  2.364170  0.260897
       Atomic Center   15 is at   1.782009  1.160034  3.807602
       Atomic Center   16 is at   1.262684  1.774450  4.545206
       Atomic Center   17 is at   2.568820  0.615283  4.330645
       Atomic Center   18 is at   2.266292  1.819596  3.085268
       Atomic Center   19 is at  -2.823059  0.121632  0.773025
       Atomic Center   20 is at  -3.395069 -0.729181  0.401119
       Atomic Center   21 is at  -3.483519  0.704320  1.417674
       Atomic Center   22 is at  -2.550382  0.733586 -0.088692
       Atomic Center   23 is at  -2.119878  1.316730  4.479392
       Atomic Center   24 is at  -2.677166  2.037837  5.078332
       Atomic Center   25 is at  -2.819676  0.539147  4.167433
       Atomic Center   26 is at  -1.367221  0.864105  5.127697
   14799 points will be used for fitting atomic charges
 Fitting point charges to electrostatic potential
 The dipole moment will be constrained to the correct value
 Charges from ESP fit, RMS=   0.00174 RRMS=   0.01458:
 ESP charges:
               1
     1  P    0.365209
     2  C   -0.047302
     3  C   -0.027304
     4  C    0.065921
     5  C   -0.434819
     6  H    0.061562
     7  H    0.077790
     8  H    0.072051
     9  H    0.055513
    10  H    0.047950
    11  H    0.047472
    12  H    0.186807
    13  H    0.164143
    14  H    0.165521
    15  C   -0.141851
    16  H    0.062732
    17  H    0.093937
    18  H    0.061271
    19  C   -0.137310
    20  H    0.094500
    21  H    0.061690
    22  H    0.060949
    23  C   -0.231323
    24  H    0.104251
    25  H    0.085634
    26  H    0.085006
 Sum of ESP charges =   1.00000
 ESP charges with hydrogens summed into heavy atoms:
               1
     1  P    0.365209
     2  C    0.092051
     3  C    0.100260
     4  C    0.161343
     5  C    0.081653
    15  C    0.076089
    19  C    0.079828
    23  C    0.043567
 Charge=   1.00000 Dipole=    -2.8986     4.4505    11.1322 Tot=    12.3343
 -----------------------------------------------------------------

              Electrostatic Properties (Atomic Units)

 -----------------------------------------------------------------
    Center     Electric         -------- Electric Field --------
               Potential          X             Y             Z
 -----------------------------------------------------------------
    1 Atom    -53.908279
    2 Atom    -14.568486
    3 Atom    -14.568486
    4 Atom    -14.568619
    5 Atom    -14.576122
    6 Atom     -0.925080
    7 Atom     -0.924305
    8 Atom     -0.924309
    9 Atom     -0.925069
   10 Atom     -0.924557
   11 Atom     -0.924544
   12 Atom     -0.915166
   13 Atom     -0.915219
   14 Atom     -0.915199
   15 Atom    -14.603158
   16 Atom     -0.962043
   17 Atom     -0.964401
   18 Atom     -0.961983
   19 Atom    -14.603125
   20 Atom     -0.964371
   21 Atom     -0.962012
   22 Atom     -0.961942
   23 Atom    -14.602429
   24 Atom     -0.963700
   25 Atom     -0.961091
   26 Atom     -0.961087
 -----------------------------------------------------------------
 1\1\GINC-CX3-7-10\SP\RMP2-Full\CC-pVTZ\C7H18P1\FDP18\26-Mar-2021\0\\# 
 RMP2=(semidirect,full)/cc-pVTZ int=ultrafine symmetry=none scf=conver=
 11 Density=current pop=(minimal,CHELPG,Dipole)\\Title Card Required\\1
 ,1\P,0,-0.5234235994,0.9307527783,2.1952099417\C,0,-1.5897876556,-0.38
 78942982,1.5296732992\C,0,0.8370578444,0.1597423317,3.1297262504\C,0,-
 1.4865068118,2.0316762606,3.2794022496\C,0,0.1539922939,1.9103965682,0
 .8308310888\H,0,-1.8788555964,-1.0160493594,2.3769284812\H,0,-0.955899
 2491,-1.0036775445,0.8843146608\H,0,1.3767077641,-0.4779429999,2.42290
 26413\H,0,0.3758705878,-0.5064614003,3.8642320554\H,0,-2.2470605005,2.
 5056514213,2.6527063404\H,0,-0.8094409288,2.8270975052,3.6030581679\H,
 0,0.7411174784,1.26995144,0.1702617541\H,0,0.7932108762,2.7024752321,1
 .2228967784\H,0,-0.6577892691,2.3641695128,0.2608970602\C,0,1.78200889
 52,1.1600337864,3.8076021238\H,0,1.2626844671,1.7744496097,4.545205692
 5\H,0,2.5688204171,0.6152829179,4.330645484\H,0,2.2662924956,1.8195959
 303,3.0852681574\C,0,-2.8230585836,0.1216320814,0.773024546\H,0,-3.395
 0689659,-0.7291807619,0.401119457\H,0,-3.4835191746,0.7043201057,1.417
 6736082\H,0,-2.5503815218,0.7335855486,-0.0886920647\C,0,-2.1198780971
 ,1.3167303532,4.479391532\H,0,-2.6771655437,2.037837023,5.0783318805\H
 ,0,-2.8196762572,0.5391468682,4.1674327062\H,0,-1.367221075,0.86410472
 98,5.1276972276\\Version=ES64L-G09RevE.01\HF=-616.2415039\MP2=-617.792
 0497\RMSD=8.373e-12\Dipole=0.1895964,0.0159464,-0.2923931\Quadrupole=-
 4.9605235,-6.9455441,11.9060676,-1.5252164,-4.0184557,8.4906967\PG=Unk
 nown\\@


 THE MORE ACCURATE THE CALCULATIONS BECOME, THE MORE THE CONCEPTS
 TEND TO VANISH INTO THIN AIR.
     -- R.S. MULLIKEN, J.C.P. 43,S2(1965)
 Job cpu time:       0 days  8 hours 39 minutes 48.2 seconds.
 File lengths (MBytes):  RWF=  84801 Int=      0 D2E=      0 Chk=     20 Scr=      2
 Normal termination of Gaussian 09 at Fri Mar 26 18:41:13 2021.
