 Entering Gaussian System, Link 0=g09
 Initial command:
 /apps/gaussian/g09_e01/g09/l1.exe "/rds/general/ephemeral/user/fdp18/ephemeral/test/gg/Gau-1638340.inp" -scrdir="/rds/general/ephemeral/user/fdp18/ephemeral/test/gg/"
 Entering Link 1 = /apps/gaussian/g09_e01/g09/l1.exe PID=   1638341.
  
 Copyright (c) 1988,1990,1992,1993,1995,1998,2003,2009,2015,
            Gaussian, Inc.  All Rights Reserved.
  
 This is part of the Gaussian(R) 09 program.  It is based on
 the Gaussian(R) 03 system (copyright 2003, Gaussian, Inc.),
 the Gaussian(R) 98 system (copyright 1998, Gaussian, Inc.),
 the Gaussian(R) 94 system (copyright 1995, Gaussian, Inc.),
 the Gaussian 92(TM) system (copyright 1992, Gaussian, Inc.),
 the Gaussian 90(TM) system (copyright 1990, Gaussian, Inc.),
 the Gaussian 88(TM) system (copyright 1988, Gaussian, Inc.),
 the Gaussian 86(TM) system (copyright 1986, Carnegie Mellon
 University), and the Gaussian 82(TM) system (copyright 1983,
 Carnegie Mellon University). Gaussian is a federally registered
 trademark of Gaussian, Inc.
  
 This software contains proprietary and confidential information,
 including trade secrets, belonging to Gaussian, Inc.
  
 This software is provided under written license and may be
 used, copied, transmitted, or stored only in accord with that
 written license.
  
 The following legend is applicable only to US Government
 contracts under FAR:
  
                    RESTRICTED RIGHTS LEGEND
  
 Use, reproduction and disclosure by the US Government is
 subject to restrictions as set forth in subparagraphs (a)
 and (c) of the Commercial Computer Software - Restricted
 Rights clause in FAR 52.227-19.
  
 Gaussian, Inc.
 340 Quinnipiac St., Bldg. 40, Wallingford CT 06492
  
  
 ---------------------------------------------------------------
 Warning -- This program may not be used in any manner that
 competes with the business of Gaussian, Inc. or will provide
 assistance to any competitor of Gaussian, Inc.  The licensee
 of this program is prohibited from giving any competitor of
 Gaussian, Inc. access to this program.  By using this program,
 the user acknowledges that Gaussian, Inc. is engaged in the
 business of creating and licensing software in the field of
 computational chemistry and represents and warrants to the
 licensee that it is not a competitor of Gaussian, Inc. and that
 it will not use this program in any manner prohibited above.
 ---------------------------------------------------------------
  

 Cite this work as:
 Gaussian 09, Revision E.01,
 M. J. Frisch, G. W. Trucks, H. B. Schlegel, G. E. Scuseria, 
 M. A. Robb, J. R. Cheeseman, G. Scalmani, V. Barone, B. Mennucci, 
 G. A. Petersson, H. Nakatsuji, M. Caricato, X. Li, H. P. Hratchian, 
 A. F. Izmaylov, J. Bloino, G. Zheng, J. L. Sonnenberg, M. Hada, 
 M. Ehara, K. Toyota, R. Fukuda, J. Hasegawa, M. Ishida, T. Nakajima, 
 Y. Honda, O. Kitao, H. Nakai, T. Vreven, J. A. Montgomery, Jr., 
 J. E. Peralta, F. Ogliaro, M. Bearpark, J. J. Heyd, E. Brothers, 
 K. N. Kudin, V. N. Staroverov, T. Keith, R. Kobayashi, J. Normand, 
 K. Raghavachari, A. Rendell, J. C. Burant, S. S. Iyengar, J. Tomasi, 
 M. Cossi, N. Rega, J. M. Millam, M. Klene, J. E. Knox, J. B. Cross, 
 V. Bakken, C. Adamo, J. Jaramillo, R. Gomperts, R. E. Stratmann, 
 O. Yazyev, A. J. Austin, R. Cammi, C. Pomelli, J. W. Ochterski, 
 R. L. Martin, K. Morokuma, V. G. Zakrzewski, G. A. Voth, 
 P. Salvador, J. J. Dannenberg, S. Dapprich, A. D. Daniels, 
 O. Farkas, J. B. Foresman, J. V. Ortiz, J. Cioslowski, 
 and D. J. Fox, Gaussian, Inc., Wallingford CT, 2013.
 
 ******************************************
 Gaussian 09:  ES64L-G09RevE.01 30-Nov-2015
                29-Nov-2020 
 ******************************************
 %nprocshared=48
 Will use up to   48 processors via shared memory.
 %mem=200GB
 %chk=P2O231.chk
 ----------------------------------------------------------------------
 # RMP2=(semidirect,full)/cc-pVTZ int=ultrafine symmetry=none scf=conve
 r=11 Density=current pop=(minimal,CHELPG,Dipole)
 ----------------------------------------------------------------------
 1/30=1,38=1/1;
 2/12=2,15=3,17=6,18=5,40=1/2;
 3/5=16,6=1,11=1,16=1,25=1,30=1,71=1,75=-5,116=1/1,2,3;
 4//1;
 5/5=2,6=11,38=5/2;
 8/6=4,10=90/1;
 9/15=1,16=-2/6;
 10/5=1,13=10,31=1/2;
 6/7=2,8=2,9=2,10=2,15=24,20=3,22=-1/1,2;
 99/5=1,9=1/99;
 -------------------
 Title Card Required
 -------------------
 Symbolic Z-matrix:
 Charge =  1 Multiplicity = 1
 P                    -0.03879  -0.49943   0.69924 
 C                    -1.50692   0.20755   1.53057 
 C                    -2.70488   0.3619    0.6022 
 C                    -4.01375  -0.87658  -0.96182 
 C                     1.40185  -0.03933   1.72753 
 C                     2.65136  -0.85572   1.41702 
 C                     4.02036  -1.51894  -0.42156 
 C                     0.12776   0.10387  -1.01638 
 C                     0.67396   1.52332  -1.08774 
 C                     0.32881   3.68781  -0.13777 
 C                    -0.46607   4.39346   0.94036 
 C                     4.0727   -1.47009  -1.93364 
 C                    -4.06271  -2.21539  -1.66672 
 C                    -0.18287  -2.30266   0.65805 
 H                    -1.21502   1.18004   1.92764 
 H                    -1.74224  -0.46128   2.3635 
 H                    -2.53038   1.18775  -0.09827 
 H                    -3.59632   0.60209   1.19472 
 H                    -3.92982  -0.05155  -1.68194 
 H                    -4.91871  -0.71102  -0.36446 
 H                     1.10862  -0.17363   2.77265 
 H                     1.5692    1.02719   1.56669 
 H                     2.54579  -1.88575   1.78483 
 H                     3.51467  -0.41027   1.92695 
 H                     4.00345  -2.55498  -0.05863 
 H                     4.8917   -1.02057   0.02064 
 H                    -0.86602   0.02563  -1.46033 
 H                     0.7995   -0.58634  -1.52628 
 H                     1.74736   1.52621  -0.86327 
 H                     0.53762   1.91935  -2.10152 
 H                     1.40829   3.77492   0.04383 
 H                     0.11876   4.1141   -1.1264 
 H                    -1.53834   4.29963   0.75544 
 H                    -0.24152   3.97996   1.9267 
 H                    -0.21551   5.45625   0.95528 
 H                     3.21367  -1.98354  -2.37231 
 H                     4.97891  -1.96292  -2.29199 
 H                     4.08457  -0.43717  -2.2881 
 H                    -3.1657   -2.37235  -2.27074 
 H                    -4.14732  -3.03018  -0.9446 
 H                    -4.92916  -2.25708  -2.33021 
 H                    -0.25066  -2.69182   1.67548 
 H                     0.69082  -2.72424   0.16095 
 H                    -1.09329  -2.55705   0.117 
 O                    -0.03803   2.30127  -0.14004 
 O                    -2.87213  -0.86021  -0.09305 
 O                     2.82841  -0.84823   0.0145 
 
                          Input orientation:                          
 ---------------------------------------------------------------------
 Center     Atomic      Atomic             Coordinates (Angstroms)
 Number     Number       Type             X           Y           Z
 ---------------------------------------------------------------------
      1         15           0       -0.038795   -0.499431    0.699235
      2          6           0       -1.506917    0.207551    1.530574
      3          6           0       -2.704876    0.361902    0.602196
      4          6           0       -4.013750   -0.876582   -0.961816
      5          6           0        1.401854   -0.039328    1.727531
      6          6           0        2.651364   -0.855723    1.417019
      7          6           0        4.020363   -1.518937   -0.421559
      8          6           0        0.127760    0.103867   -1.016375
      9          6           0        0.673957    1.523324   -1.087737
     10          6           0        0.328809    3.687805   -0.137770
     11          6           0       -0.466067    4.393462    0.940358
     12          6           0        4.072702   -1.470089   -1.933636
     13          6           0       -4.062709   -2.215390   -1.666724
     14          6           0       -0.182874   -2.302659    0.658052
     15          1           0       -1.215018    1.180039    1.927637
     16          1           0       -1.742240   -0.461282    2.363500
     17          1           0       -2.530375    1.187745   -0.098273
     18          1           0       -3.596320    0.602090    1.194725
     19          1           0       -3.929819   -0.051548   -1.681940
     20          1           0       -4.918708   -0.711020   -0.364459
     21          1           0        1.108617   -0.173632    2.772647
     22          1           0        1.569202    1.027186    1.566685
     23          1           0        2.545793   -1.885750    1.784829
     24          1           0        3.514670   -0.410267    1.926952
     25          1           0        4.003449   -2.554980   -0.058629
     26          1           0        4.891696   -1.020567    0.020643
     27          1           0       -0.866024    0.025631   -1.460333
     28          1           0        0.799498   -0.586338   -1.526282
     29          1           0        1.747363    1.526214   -0.863267
     30          1           0        0.537619    1.919353   -2.101516
     31          1           0        1.408293    3.774924    0.043832
     32          1           0        0.118765    4.114105   -1.126405
     33          1           0       -1.538340    4.299629    0.755442
     34          1           0       -0.241521    3.979956    1.926696
     35          1           0       -0.215511    5.456253    0.955284
     36          1           0        3.213666   -1.983540   -2.372313
     37          1           0        4.978910   -1.962915   -2.291995
     38          1           0        4.084574   -0.437169   -2.288103
     39          1           0       -3.165697   -2.372354   -2.270744
     40          1           0       -4.147321   -3.030183   -0.944598
     41          1           0       -4.929162   -2.257076   -2.330205
     42          1           0       -0.250664   -2.691825    1.675480
     43          1           0        0.690824   -2.724237    0.160949
     44          1           0       -1.093293   -2.557046    0.117001
     45          8           0       -0.038029    2.301271   -0.140044
     46          8           0       -2.872127   -0.860215   -0.093046
     47          8           0        2.828409   -0.848229    0.014501
 ---------------------------------------------------------------------
                    Distance matrix (angstroms):
                    1          2          3          4          5
     1  P    0.000000
     2  C    1.829298   0.000000
     3  C    2.803445   1.523423   0.000000
     4  C    4.324535   3.697508   2.386028   0.000000
     5  C    1.828812   2.925865   4.276984   6.104289   0.000000
     6  C    2.806975   4.293570   5.553004   7.076937   1.524531
     7  C    4.332705   6.110843   7.057937   8.077838   3.696542
     8  C    1.826206   3.028180   3.272642   4.256332   3.028670
     9  C    2.791563   3.652811   3.952378   5.267827   3.301128
    10  C    4.285867   4.273808   4.562064   6.353778   4.303753
    11  C    4.917429   4.353571   4.623862   6.631568   4.874258
    12  C    4.977810   6.778449   7.464730   8.166234   4.752331
    13  C    4.973346   4.756620   3.692445   1.513836   6.790999
    14  C    1.809444   2.969097   3.669264   4.396962   2.962737
    15  H    2.390208   1.090228   2.155416   4.517912   2.893945
    16  H    2.381798   1.093837   2.169445   4.048452   3.235402
    17  H    3.112966   2.159026   1.096870   2.684689   4.505740
    18  H    3.756973   2.152687   1.097020   2.647903   5.067251
    19  H    4.583739   4.032100   2.624634   1.098318   6.328615
    20  H    4.998977   4.009395   2.643225   1.096903   6.691569
    21  H    2.392015   2.920455   4.420451   6.378009   1.093752
    22  H    2.380900   3.183648   4.431771   6.417710   1.091480
    23  H    3.127377   4.568480   5.832674   7.182623   2.172822
    24  H    3.760632   5.074953   6.405777   8.077100   2.154381
    25  H    4.597757   6.365632   7.344829   8.240645   4.035737
    26  H    5.004179   6.688080   7.743212   8.960632   4.006906
    27  H    2.371442   3.064208   2.783610   3.312203   3.912795
    28  H    2.379751   3.910777   4.208351   4.854917   3.354005
    29  H    3.120098   4.249669   4.829662   6.242881   3.046725
    30  H    3.745260   4.505827   4.499943   5.461788   4.386904
    31  H    4.560014   4.840971   5.373886   7.214319   4.169340
    32  H    4.964121   4.996353   5.004002   6.481645   5.200218
    33  H    5.028198   4.164964   4.109742   5.989139   5.330688
    34  H    4.648942   3.998647   4.573044   6.794055   4.346836
    35  H    5.963805   5.435767   5.681023   7.629332   5.780454
    36  H    4.713331   6.505175   7.026944   7.446502   4.885831
    37  H    6.022176   7.835107   8.533563   9.155186   5.714202
    38  H    5.092174   6.801671   7.422195   8.217966   4.845676
    39  H    4.701717   4.884413   3.992781   2.160976   6.503210
    40  H    5.097734   4.856041   3.997432   2.157808   6.846812
    41  H    6.015191   5.717671   4.517242   2.148541   7.839986
    42  H    2.409260   3.163155   4.062062   4.940774   3.125582
    43  H    2.402469   3.911690   4.609744   5.177591   3.188806
    44  H    2.384269   3.132454   3.369402   3.537919   3.893387
    45  O    2.923752   3.054875   3.379962   5.155620   3.322575
    46  O    2.964059   2.374882   1.415946   1.434689   4.717549
    47  O    2.968397   4.712558   5.694475   6.911522   2.371466
                    6          7          8          9         10
     6  C    0.000000
     7  C    2.386290   0.000000
     8  C    3.634666   4.259068   0.000000
     9  C    3.980428   4.571387   1.522591   0.000000
    10  C    5.334349   6.388918   3.695535   2.388837   0.000000
    11  C    6.123685   7.545816   4.752059   3.694661   1.513981
    12  C    3.691143   1.513771   4.345258   4.607334   6.621612
    13  C    7.512453   8.208017   4.833420   6.062114   7.514709
    14  C    3.271477   4.409873   2.948147   4.291863   6.064719
    15  H    4.399314   6.341326   3.410045   3.574710   3.596970
    16  H    4.511670   6.487125   3.903826   4.657007   5.268825
    17  H    5.772546   7.095267   3.013866   3.370371   3.798262
    18  H    6.419360   8.070006   4.359583   4.928851   5.167573
    19  H    7.318621   8.182126   4.114739   4.901842   5.873937
    20  H    7.778213   8.975689   5.153240   6.065751   6.851094
    21  H    2.164034   4.526706   3.923746   4.239240   4.897890
    22  H    2.176882   4.055126   3.098786   2.844921   3.394501
    23  H    1.098811   2.679003   4.201453   4.834997   6.298883
    24  H    1.097160   2.645823   4.516488   4.571299   5.586321
    25  H    2.625480   1.097902   4.796635   5.364433   7.244419
    26  H    2.645020   1.096876   5.003483   5.048684   6.558491
    27  H    4.629034   5.228912   1.091250   2.180242   4.072876
    28  H    3.487836   3.530457   1.089780   2.158416   4.518608
    29  H    3.419144   3.825517   2.160932   1.096629   2.685352
    30  H    4.954700   5.174321   2.154415   1.096893   2.650910
    31  H    4.987360   5.921526   4.029946   2.624767   1.098115
    32  H    6.130436   6.888428   4.011757   2.649883   1.096926
    33  H    6.675998   8.132664   4.849705   3.999929   2.158333
    34  H    5.657944   7.342736   4.880789   3.994990   2.161631
    35  H    6.947893   8.275966   5.714308   4.520290   2.149061
    36  H    3.993394   2.161495   3.964675   4.516453   6.743867
    37  H    4.516651   2.148129   5.425168   5.668926   7.628550
    38  H    3.994648   2.158318   4.191227   4.112993   5.978722
    39  H    7.052515   7.469088   4.307201   5.596317   7.313459
    40  H    7.518486   8.322771   5.301297   6.633223   8.112834
    41  H    8.571456   9.180511   5.733469   6.872416   8.233750
    42  H    3.443811   4.900501   3.899383   5.124234   6.657578
    43  H    2.985427   3.588579   3.114692   4.427333   6.429197
    44  H    4.313583   5.245683   3.139422   4.606949   6.409793
    45  O    4.429886   5.580662   2.371503   1.417832   1.434243
    46  O    5.726192   6.931685   3.283491   4.386956   5.561697
    47  O    1.413668   1.435532   3.043468   3.388341   5.181389
                   11         12         13         14         15
    11  C    0.000000
    12  C    7.952452   0.000000
    13  C    7.963018   8.173838   0.000000
    14  C    6.708050   5.051727   4.523862   0.000000
    15  H    3.444087   7.063469   5.705937   3.847902   0.000000
    16  H    5.217517   7.300454   4.970330   2.954801   1.778166
    17  H    3.951803   7.350732   4.048385   4.273840   2.415477
    18  H    4.923179   8.537825   4.042723   4.514111   2.557691
    19  H    6.215476   8.131171   2.167972   4.958090   4.681452
    20  H    6.898138   9.158819   2.166047   5.099703   4.748382
    21  H    5.166745   5.711016   7.114732   3.266836   2.818820
    22  H    3.983268   4.975554   7.258627   3.870821   2.811678
    23  H    7.015193   4.041189   7.462854   2.981453   4.854190
    24  H    6.316284   4.042123   8.578442   4.343166   4.989892
    25  H    8.321982   2.167357   8.231901   4.254715   6.717739
    26  H    7.672236   2.166109   9.190005   5.272695   6.765446
    27  H    5.000124   5.181911   3.909421   3.221054   3.596220
    28  H    5.699507   3.414793   5.129776   2.946545   4.371261
    29  H    4.046411   3.940904   6.957161   4.549780   4.084689
    30  H    4.047419   4.900337   6.200659   5.095067   4.455602
    31  H    2.167850   6.206417   8.291064   6.312377   4.142935
    32  H    2.166005   6.889736   7.605207   6.667093   4.440145
    33  H    1.092140   8.485551   7.394917   6.740696   3.348196
    34  H    1.092827   7.950954   8.117664   6.409691   2.964326
    35  H    1.092028   8.643428   8.973850   7.764672   4.497832
    36  H    8.073437   1.092709   7.314181   4.563051   6.936212
    37  H    8.972146   1.092022   9.066730   5.955016   8.127004
    38  H    7.380128   1.092113   8.362201   5.510989   6.962291
    39  H    7.960871   7.302202   1.092753   4.180902   5.835328
    40  H    8.497953   8.425015   1.092023   4.337583   5.879975
    41  H    8.651327   9.044897   1.092101   5.608833   6.613459
    42  H    7.126577   5.762798   5.092054   1.091423   3.998112
    43  H    7.253104   4.171004   5.118144   1.090041   4.690074
    44  H    7.027154   5.663399   3.480781   1.089179   4.154398
    45  O    2.393272   5.859884   6.239313   4.674838   2.630165
    46  O    5.870108   7.210435   2.393836   3.142750   3.315389
    47  O    6.259881   2.393786   7.223792   3.405489   4.911544
                   16         17         18         19         20
    16  H    0.000000
    17  H    3.066068   0.000000
    18  H    2.436064   1.775126   0.000000
    19  H    4.617247   2.449958   2.968781   0.000000
    20  H    4.194530   3.062727   2.429820   1.774418   0.000000
    21  H    2.894396   4.830920   5.022749   6.726372   6.816074
    22  H    3.717002   4.427686   5.196314   6.477381   6.988824
    23  H    4.555348   6.225747   6.653054   7.570755   7.856094
    24  H    5.275252   6.572500   7.219917   8.280893   8.744306
    25  H    6.577479   7.529968   8.324330   8.475792   9.115844
    26  H    7.057683   7.744542   8.721118   9.036422   9.822839
    27  H    3.953042   2.444542   3.851773   3.072769   4.262376
    28  H    4.648277   4.034184   5.304664   4.762003   5.836374
    29  H    5.151650   4.358764   5.800369   5.948946   7.049151
    30  H    5.549914   3.736419   5.448838   4.900868   6.301408
    31  H    5.766468   4.714530   6.036355   6.790849   7.766681
    32  H    6.047887   4.079041   5.614601   5.835436   7.017017
    33  H    5.029284   3.375912   4.254414   5.531071   6.147167
    34  H    4.708242   4.139540   4.816683   6.548192   7.009331
    35  H    6.271459   4.968776   5.920312   7.147511   7.867467
    36  H    7.021837   6.944229   8.110804   7.432266   8.472679
    37  H    8.312785   8.433768   9.605781   9.131864  10.160979
    38  H    7.455854   7.154946   8.497427   8.046529   9.210564
    39  H    5.211013   4.218718   4.587181   2.513307   3.076850
    40  H    4.829822   4.595835   4.251319   3.076239   2.511995
    41  H    5.950817   4.754208   4.730373   2.506648   2.500911
    42  H    2.770108   4.836770   4.719578   5.637332   5.465856
    43  H    3.986477   5.074143   5.523835   5.647110   5.982972
    44  H    3.140083   4.016840   4.172143   4.190416   4.274742
    45  O    4.099240   2.730105   4.162962   4.802003   5.739798
    46  O    2.733206   2.076285   2.078736   2.072977   2.069884
    47  O    5.153480   5.733627   6.691300   7.013292   7.757594
                   21         22         23         24         25
    21  H    0.000000
    22  H    1.763079   0.000000
    23  H    2.443892   3.080018   0.000000
    24  H    2.561306   2.445589   1.770868   0.000000
    25  H    4.697552   4.625917   2.443557   2.963314   0.000000
    26  H    4.754211   4.197916   3.060091   2.429544   1.774737
    27  H    4.675151   4.012017   5.081825   5.554655   5.686483
    28  H    4.329743   3.572443   3.962508   4.396360   4.036688
    29  H    4.064154   2.487054   4.392198   3.828662   4.732178
    30  H    5.335175   3.913543   5.797865   5.524356   6.017060
    31  H    4.809088   3.145638   6.030606   5.049632   6.842004
    32  H    5.879379   4.345753   7.096760   6.428460   7.791508
    33  H    5.575443   4.585174   7.483227   7.006316   8.852107
    34  H    4.448684   3.482409   6.495825   5.777804   8.041558
    35  H    6.062321   4.814110   7.887836   7.019576   9.110845
    36  H    5.846163   5.223451   4.211585   4.587970   2.510664
    37  H    6.620522   5.954513   4.748316   4.728026   2.507984
    38  H    5.876816   4.830199   4.588574   4.253493   3.076079
    39  H    6.967061   6.978683   7.021793   8.130052   7.504896
    40  H    7.042917   7.446303   7.318284   8.591617   8.212540
    41  H    8.175244   8.258382   8.540863   9.634957   9.221732
    42  H    3.064754   4.141834   2.912367   4.409817   4.596013
    43  H    3.674385   4.101319   2.604027   4.055531   3.324206
    44  H    4.193033   4.694377   4.058969   5.396101   5.099767
    45  O    3.990453   2.668223   5.283221   4.924082   6.318492
    46  O    4.952769   5.103175   5.825118   6.713719   7.081452
    47  O    3.319659   2.740813   2.071324   2.078517   2.073419
                   26         27         28         29         30
    26  H    0.000000
    27  H    6.036486   0.000000
    28  H    4.396318   1.775618   0.000000
    29  H    4.141766   3.072137   2.408509   0.000000
    30  H    5.666098   2.442849   2.584175   1.775189   0.000000
    31  H    5.927172   4.635971   4.675094   2.448366   2.967109
    32  H    7.103622   4.218641   4.766284   3.068998   2.437871
    33  H    8.377934   4.860939   5.877451   4.594332   4.258818
    34  H    7.415401   5.243916   5.818747   4.214309   4.591256
    35  H    8.300983   5.979133   6.610698   4.754494   4.735071
    36  H    3.077229   4.638140   2.914815   4.092144   4.739950
    37  H    2.498784   6.229705   4.466404   4.965701   5.901979
    38  H    2.514380   5.040615   3.375551   3.368618   4.262498
    39  H    8.485245   3.419883   4.412126   6.427907   5.671150
    40  H    9.309892   4.513413   5.548131   7.450817   6.912672
    41  H   10.173726   4.740941   6.021229   7.812885   6.883353
    42  H    5.654684   4.194825   3.973310   5.313116   6.012491
    43  H    4.535362   3.551635   2.725651   4.497959   5.167702
    44  H    6.179817   3.034774   3.188530   5.069838   5.255457
    45  O    5.946648   2.758129   3.310800   2.076388   2.079568
    46  O    7.766311   2.584308   3.950950   5.256231   4.835940
    47  O    2.070481   4.072788   2.561070   2.752656   4.169503
                   31         32         33         34         35
    31  H    0.000000
    32  H    1.774086   0.000000
    33  H    3.076418   2.514311   0.000000
    34  H    2.511792   3.077211   1.776449   0.000000
    35  H    2.508855   2.499306   1.768500   1.767420   0.000000
    36  H    6.500542   6.950681   8.476002   8.122997   8.842097
    37  H    7.150398   7.868277   9.538390   8.964818   9.621377
    38  H    5.508369   6.147461   7.957234   7.482688   7.983903
    39  H    8.004230   7.360120   7.504762   8.156051   8.966491
    40  H    8.840325   8.323064   7.963860   8.523008   9.544019
    41  H    9.065562   8.217216   8.000579   8.887956   9.618128
    42  H    6.872646   7.369377   7.168334   6.676515   8.179921
    43  H    6.539693   6.981938   7.393057   6.995236   8.268787
    44  H    6.808607   6.893431   6.900700   6.836146   8.104701
    45  O    2.072996   2.069748   2.654479   2.670357   3.344422
    46  O    6.310725   5.895517   5.396564   5.867427   6.932126
    47  O    4.836438   5.767893   6.791018   6.032605   7.063782
                   36         37         38         39         40
    36  H    0.000000
    37  H    1.767191   0.000000
    38  H    1.776749   1.768546   0.000000
    39  H    6.392008   8.154920   7.504110   0.000000
    40  H    7.570863   9.286692   8.734577   1.776229   0.000000
    41  H    8.147529   9.912511   9.195720   1.768228   1.768864
    42  H    5.374744   6.604590   6.291879   4.916520   4.707784
    43  H    3.651134   4.998422   4.769285   4.572714   4.972272
    44  H    5.007543   6.559565   6.090049   3.167065   3.267712
    45  O    5.823758   6.927038   5.395282   6.013732   6.779233
    46  O    6.594982   8.227400   7.307046   2.667418   2.657071
    47  O    2.670999   3.344713   2.654978   6.593529   7.371677
                   41         42         43         44         45
    41  H    0.000000
    42  H    6.174372   0.000000
    43  H    6.165090   1.783607   0.000000
    44  H    4.559901   1.776808   1.792472   0.000000
    45  O    7.035518   5.317175   5.086999   4.978242   0.000000
    46  O    3.344771   3.654388   4.029109   2.467308   4.246094
    47  O    8.225716   3.954540   2.847828   4.279054   4.261420
                   46         47
    46  O    0.000000
    47  O    5.701563   0.000000
 Symmetry turned off by external request.
 Stoichiometry    C13H30O3P
 Rotational constants (GHZ):      0.4143796      0.2771580      0.2070839
 Standard basis: CC-pVTZ (5D, 7F)
   934 basis functions,  1437 primitive gaussians,  1049 cartesian basis functions
    73 alpha electrons       73 beta electrons
       nuclear repulsion energy      1567.7447992830 Hartrees.
 NAtoms=   47 NActive=   47 NUniq=   47 SFac= 1.00D+00 NAtFMM=   60 NAOKFM=F Big=F
 Integral buffers will be    131072 words long.
 Raffenetti 1 integral format.
 Two-electron integral symmetry is turned off.
 One-electron integrals computed using PRISM.
 NBasis=   934 RedAO= T EigKep=  2.44D-04  NBF=   934
 NBsUse=   934 1.00D-06 EigRej= -1.00D+00 NBFU=   934
 ExpMin= 9.71D-02 ExpMax= 3.12D+05 ExpMxC= 9.87D+02 IAcc=3 IRadAn=         5 AccDes= 0.00D+00
 Harris functional with IExCor=  205 and IRadAn=       5 diagonalized for initial guess.
 HarFok:  IExCor=  205 AccDes= 0.00D+00 IRadAn=         5 IDoV= 1 UseB2=F ITyADJ=14
 ICtDFT=  3500011 ScaDFX=  1.000000  1.000000  1.000000  1.000000
 FoFCou: FMM=F IPFlag=           0 FMFlag=      100000 FMFlg1=           0
         NFxFlg=           0 DoJE=T BraDBF=F KetDBF=T FulRan=T
         wScrn=  0.000000 ICntrl=     500 IOpCl=  0 I1Cent=   200000004 NGrid=           0
         NMat0=    1 NMatS0=      1 NMatT0=    0 NMatD0=    1 NMtDS0=    0 NMtDT0=    0
 Symmetry not used in FoFCou.
 Requested convergence on RMS density matrix=1.00D-11 within 128 cycles.
 Requested convergence on MAX density matrix=1.00D-09.
 Requested convergence on             energy=1.00D-09.
 No special actions if energy rises.
 Integral accuracy reduced to 1.0D-05 until final iterations.
 Initial convergence to 1.0D-05 achieved.  Increase integral accuracy.
 SCF Done:  E(RHF) =  -1075.17228720     A.U. after   17 cycles
            NFock= 17  Conv=0.70D-11     -V/T= 2.0010
 Range of M.O.s used for correlation:     1   934
 NBasis=   934 NAE=    73 NBE=    73 NFC=     0 NFV=     0
 NROrb=    934 NOA=    73 NOB=    73 NVA=   861 NVB=   861

 **** Warning!!: The largest alpha MO coefficient is  0.10860826D+02

 Disk-based method using ON**2 memory for 73 occupieds at a time.
 Estimated scratch disk usage=124604884840 words.
 Actual    scratch disk usage=112632686440 words.
 JobTyp=1 Pass  1:  I=   1 to  73 NPSUse= 48 ParTrn=T ParDer=T DoDerP=T.
 Spin components of T(2) and E(2):
     alpha-alpha T2 =       0.1165408202D+00 E2=     -0.3914311532D+00
     alpha-beta  T2 =       0.7036733973D+00 E2=     -0.2645694675D+01
     beta-beta   T2 =       0.1165408202D+00 E2=     -0.3914311532D+00
 ANorm=    0.1391673467D+01
 E2 =    -0.3428556981D+01 EUMP2 =    -0.10786008441854D+04
          Differentiating once with respect to electric field.
                with respect to dipole field.
          Electric field/nuclear overlap derivatives assumed to be zero.
          There are     1 degrees of freedom in the 1st order CPHF.  IDoFFX=0 NUNeed=     1.
 LinEq1:  Iter=  0 NonCon=     1 RMS=1.52D-03 Max=2.62D-02 NDo=     1
 AX will form     1 AO Fock derivatives at one time.
 LinEq1:  Iter=  1 NonCon=     1 RMS=3.55D-04 Max=5.35D-03 NDo=     1
 LinEq1:  Iter=  2 NonCon=     1 RMS=9.02D-05 Max=1.30D-03 NDo=     1
 LinEq1:  Iter=  3 NonCon=     1 RMS=3.61D-05 Max=5.61D-04 NDo=     1
 LinEq1:  Iter=  4 NonCon=     1 RMS=1.00D-05 Max=1.41D-04 NDo=     1
 LinEq1:  Iter=  5 NonCon=     1 RMS=2.10D-06 Max=3.27D-05 NDo=     1
 LinEq1:  Iter=  6 NonCon=     1 RMS=6.07D-07 Max=8.46D-06 NDo=     1
 LinEq1:  Iter=  7 NonCon=     1 RMS=1.88D-07 Max=3.52D-06 NDo=     1
 LinEq1:  Iter=  8 NonCon=     1 RMS=4.53D-08 Max=6.57D-07 NDo=     1
 LinEq1:  Iter=  9 NonCon=     1 RMS=1.33D-08 Max=2.06D-07 NDo=     1
 LinEq1:  Iter= 10 NonCon=     1 RMS=4.32D-09 Max=8.44D-08 NDo=     1
 LinEq1:  Iter= 11 NonCon=     1 RMS=1.57D-09 Max=2.77D-08 NDo=     1
 LinEq1:  Iter= 12 NonCon=     1 RMS=4.94D-10 Max=7.88D-09 NDo=     1
 LinEq1:  Iter= 13 NonCon=     1 RMS=1.40D-10 Max=1.63D-09 NDo=     1
 LinEq1:  Iter= 14 NonCon=     0 RMS=3.51D-11 Max=5.52D-10 NDo=     1
 Linear equations converged to 1.000D-10 1.000D-09 after    14 iterations.
 End of Minotr F.D. properties file   721 does not exist.
 End of Minotr F.D. properties file   722 does not exist.
 End of Minotr F.D. properties file   788 does not exist.

 **********************************************************************

            Population analysis using the MP2 density.

 **********************************************************************

 Alpha  occ. eigenvalues --  -80.15180 -20.68297 -20.68020 -20.67609 -11.41436
 Alpha  occ. eigenvalues --  -11.40728 -11.40521 -11.38783 -11.38630 -11.38230
 Alpha  occ. eigenvalues --  -11.38218 -11.37653 -11.37441 -11.36923 -11.31878
 Alpha  occ. eigenvalues --  -11.31817 -11.31320  -7.68975  -5.58500  -5.58483
 Alpha  occ. eigenvalues --   -5.58479  -1.50101  -1.49734  -1.49360  -1.23010
 Alpha  occ. eigenvalues --   -1.17527  -1.17081  -1.13541  -1.11032  -1.10485
 Alpha  occ. eigenvalues --   -1.10172  -1.01277  -0.98149  -0.96859  -0.94835
 Alpha  occ. eigenvalues --   -0.94648  -0.94219  -0.86528  -0.81355  -0.81286
 Alpha  occ. eigenvalues --   -0.79752  -0.79048  -0.78572  -0.77792  -0.75384
 Alpha  occ. eigenvalues --   -0.74708  -0.74299  -0.73287  -0.72612  -0.71676
 Alpha  occ. eigenvalues --   -0.70782  -0.70374  -0.68877  -0.68100  -0.67389
 Alpha  occ. eigenvalues --   -0.65432  -0.64996  -0.64425  -0.63542  -0.63029
 Alpha  occ. eigenvalues --   -0.62821  -0.62002  -0.61607  -0.61223  -0.60675
 Alpha  occ. eigenvalues --   -0.60177  -0.59885  -0.59589  -0.59108  -0.58307
 Alpha  occ. eigenvalues --   -0.55015  -0.54526  -0.54064
 Alpha virt. eigenvalues --    0.00979   0.02838   0.02925   0.03413   0.03845
 Alpha virt. eigenvalues --    0.04759   0.05377   0.06196   0.06842   0.07968
 Alpha virt. eigenvalues --    0.08566   0.08922   0.09142   0.09240   0.09653
 Alpha virt. eigenvalues --    0.09835   0.10517   0.11674   0.11730   0.12033
 Alpha virt. eigenvalues --    0.12241   0.13022   0.13188   0.13807   0.13942
 Alpha virt. eigenvalues --    0.14210   0.15058   0.15284   0.15369   0.15920
 Alpha virt. eigenvalues --    0.16494   0.17096   0.17419   0.18728   0.18900
 Alpha virt. eigenvalues --    0.19609   0.20244   0.21301   0.22882   0.23449
 Alpha virt. eigenvalues --    0.23928   0.24132   0.25213   0.26060   0.26275
 Alpha virt. eigenvalues --    0.26900   0.27146   0.27525   0.28090   0.29273
 Alpha virt. eigenvalues --    0.29422   0.30109   0.30979   0.31315   0.31945
 Alpha virt. eigenvalues --    0.32437   0.33763   0.34993   0.35400   0.36021
 Alpha virt. eigenvalues --    0.37979   0.38389   0.38816   0.39510   0.39872
 Alpha virt. eigenvalues --    0.40425   0.40657   0.41178   0.41996   0.43215
 Alpha virt. eigenvalues --    0.43865   0.44555   0.45316   0.45599   0.46368
 Alpha virt. eigenvalues --    0.46476   0.46729   0.47244   0.47975   0.48999
 Alpha virt. eigenvalues --    0.49322   0.49568   0.50013   0.50829   0.51120
 Alpha virt. eigenvalues --    0.51330   0.51590   0.51953   0.52335   0.52845
 Alpha virt. eigenvalues --    0.53039   0.53419   0.53679   0.54057   0.54195
 Alpha virt. eigenvalues --    0.54631   0.55179   0.55385   0.56067   0.56413
 Alpha virt. eigenvalues --    0.56595   0.57102   0.57165   0.57594   0.57832
 Alpha virt. eigenvalues --    0.57928   0.58262   0.58318   0.58904   0.59470
 Alpha virt. eigenvalues --    0.59612   0.60330   0.60620   0.60877   0.61348
 Alpha virt. eigenvalues --    0.62135   0.62472   0.62894   0.63721   0.64370
 Alpha virt. eigenvalues --    0.65229   0.65591   0.67910   0.68337   0.69153
 Alpha virt. eigenvalues --    0.69460   0.70462   0.71610   0.72214   0.73102
 Alpha virt. eigenvalues --    0.73626   0.73794   0.74039   0.76047   0.77420
 Alpha virt. eigenvalues --    0.78315   0.78418   0.79515   0.80218   0.81669
 Alpha virt. eigenvalues --    0.82524   0.83643   0.84233   0.84728   0.85490
 Alpha virt. eigenvalues --    0.85993   0.86510   0.87934   0.88685   0.89339
 Alpha virt. eigenvalues --    0.89933   0.91405   0.92847   0.93062   0.93614
 Alpha virt. eigenvalues --    0.94004   0.95226   0.95382   0.95990   0.97690
 Alpha virt. eigenvalues --    0.98441   0.98767   0.99148   1.00017   1.01068
 Alpha virt. eigenvalues --    1.01991   1.02524   1.03581   1.04118   1.04726
 Alpha virt. eigenvalues --    1.04944   1.05756   1.06196   1.07246   1.07572
 Alpha virt. eigenvalues --    1.07880   1.08260   1.08377   1.09411   1.09447
 Alpha virt. eigenvalues --    1.10269   1.10433   1.11011   1.11814   1.12090
 Alpha virt. eigenvalues --    1.12449   1.13295   1.13594   1.14518   1.15116
 Alpha virt. eigenvalues --    1.15438   1.16245   1.16431   1.16970   1.17375
 Alpha virt. eigenvalues --    1.17908   1.18135   1.19299   1.19400   1.20546
 Alpha virt. eigenvalues --    1.20908   1.20929   1.21348   1.22240   1.22315
 Alpha virt. eigenvalues --    1.22609   1.22938   1.23232   1.23349   1.24079
 Alpha virt. eigenvalues --    1.24535   1.25302   1.25748   1.25810   1.26260
 Alpha virt. eigenvalues --    1.27177   1.27537   1.28660   1.29257   1.29789
 Alpha virt. eigenvalues --    1.30228   1.30754   1.31561   1.31867   1.32249
 Alpha virt. eigenvalues --    1.32834   1.33689   1.34479   1.35122   1.35831
 Alpha virt. eigenvalues --    1.35953   1.36661   1.37223   1.37640   1.38421
 Alpha virt. eigenvalues --    1.38975   1.39505   1.40261   1.40555   1.40908
 Alpha virt. eigenvalues --    1.41291   1.41477   1.41819   1.42452   1.42977
 Alpha virt. eigenvalues --    1.43100   1.43450   1.44072   1.44426   1.45091
 Alpha virt. eigenvalues --    1.45272   1.46722   1.47213   1.47700   1.48175
 Alpha virt. eigenvalues --    1.49045   1.49377   1.50523   1.50826   1.51367
 Alpha virt. eigenvalues --    1.51741   1.52328   1.52634   1.53531   1.53928
 Alpha virt. eigenvalues --    1.54829   1.54986   1.55224   1.55349   1.55820
 Alpha virt. eigenvalues --    1.57232   1.57539   1.58182   1.58607   1.59598
 Alpha virt. eigenvalues --    1.60760   1.61708   1.63078   1.63759   1.64760
 Alpha virt. eigenvalues --    1.65060   1.65603   1.66429   1.66565   1.66713
 Alpha virt. eigenvalues --    1.68418   1.68810   1.71013   1.71357   1.72769
 Alpha virt. eigenvalues --    1.73014   1.73947   1.74781   1.75258   1.76046
 Alpha virt. eigenvalues --    1.77580   1.77840   1.79577   1.83667   1.84753
 Alpha virt. eigenvalues --    1.85464   1.86464   1.89408   1.90353   1.93225
 Alpha virt. eigenvalues --    1.95373   1.96687   1.97870   1.99975   2.02374
 Alpha virt. eigenvalues --    2.03639   2.05293   2.08057   2.10216   2.14341
 Alpha virt. eigenvalues --    2.15248   2.17800   2.18462   2.20679   2.20888
 Alpha virt. eigenvalues --    2.21521   2.22263   2.22938   2.25497   2.28189
 Alpha virt. eigenvalues --    2.28486   2.29217   2.30127   2.39717   2.41476
 Alpha virt. eigenvalues --    2.41673   2.42058   2.42468   2.42712   2.46681
 Alpha virt. eigenvalues --    2.48625   2.49669   2.51090   2.51409   2.52182
 Alpha virt. eigenvalues --    2.52912   2.53853   2.54268   2.54985   2.56268
 Alpha virt. eigenvalues --    2.57891   2.58291   2.59545   2.60215   2.61608
 Alpha virt. eigenvalues --    2.62177   2.63484   2.64227   2.65149   2.66158
 Alpha virt. eigenvalues --    2.67052   2.67971   2.68890   2.69657   2.70243
 Alpha virt. eigenvalues --    2.70867   2.73116   2.74149   2.74182   2.75923
 Alpha virt. eigenvalues --    2.76873   2.77132   2.77752   2.78307   2.78910
 Alpha virt. eigenvalues --    2.79744   2.80318   2.80701   2.80866   2.81799
 Alpha virt. eigenvalues --    2.83304   2.83627   2.83826   2.85058   2.85727
 Alpha virt. eigenvalues --    2.87003   2.87445   2.88401   2.90601   2.92116
 Alpha virt. eigenvalues --    2.93169   2.94523   2.94744   2.96644   2.98369
 Alpha virt. eigenvalues --    2.98438   2.98726   2.99243   2.99604   3.00158
 Alpha virt. eigenvalues --    3.00498   3.00577   3.00812   3.01204   3.01904
 Alpha virt. eigenvalues --    3.02793   3.03526   3.03822   3.04965   3.05543
 Alpha virt. eigenvalues --    3.05917   3.06384   3.07800   3.07979   3.10140
 Alpha virt. eigenvalues --    3.10589   3.10929   3.11190   3.11981   3.12753
 Alpha virt. eigenvalues --    3.13899   3.14516   3.14686   3.15931   3.16510
 Alpha virt. eigenvalues --    3.17031   3.17335   3.17502   3.17807   3.18199
 Alpha virt. eigenvalues --    3.18854   3.19741   3.20016   3.20730   3.21446
 Alpha virt. eigenvalues --    3.21968   3.22074   3.22838   3.23084   3.23324
 Alpha virt. eigenvalues --    3.23792   3.23950   3.24504   3.24973   3.25358
 Alpha virt. eigenvalues --    3.25690   3.26140   3.27455   3.27618   3.28050
 Alpha virt. eigenvalues --    3.28766   3.29253   3.29468   3.30218   3.30545
 Alpha virt. eigenvalues --    3.31004   3.31224   3.31317   3.31561   3.31895
 Alpha virt. eigenvalues --    3.32237   3.32476   3.33129   3.33649   3.34674
 Alpha virt. eigenvalues --    3.35037   3.36215   3.36817   3.36993   3.37480
 Alpha virt. eigenvalues --    3.38077   3.38653   3.39177   3.39525   3.39946
 Alpha virt. eigenvalues --    3.40821   3.41051   3.42263   3.42632   3.43686
 Alpha virt. eigenvalues --    3.44007   3.44183   3.44626   3.44869   3.45071
 Alpha virt. eigenvalues --    3.45190   3.46001   3.47193   3.48007   3.49010
 Alpha virt. eigenvalues --    3.50202   3.51310   3.52032   3.52802   3.52984
 Alpha virt. eigenvalues --    3.53416   3.53712   3.53888   3.55669   3.55934
 Alpha virt. eigenvalues --    3.56765   3.57024   3.57566   3.58222   3.59199
 Alpha virt. eigenvalues --    3.59972   3.60659   3.60918   3.61645   3.62236
 Alpha virt. eigenvalues --    3.62887   3.63103   3.63585   3.63896   3.65045
 Alpha virt. eigenvalues --    3.65265   3.65664   3.66269   3.66487   3.66963
 Alpha virt. eigenvalues --    3.67200   3.68036   3.68399   3.68970   3.70016
 Alpha virt. eigenvalues --    3.70359   3.71176   3.71238   3.71708   3.72118
 Alpha virt. eigenvalues --    3.72415   3.73376   3.74437   3.75336   3.75505
 Alpha virt. eigenvalues --    3.75728   3.76143   3.76366   3.77001   3.77395
 Alpha virt. eigenvalues --    3.78234   3.79398   3.79904   3.80615   3.80783
 Alpha virt. eigenvalues --    3.81775   3.82041   3.83100   3.83374   3.83863
 Alpha virt. eigenvalues --    3.84263   3.84855   3.85074   3.85957   3.86609
 Alpha virt. eigenvalues --    3.87109   3.87947   3.88871   3.90015   3.91085
 Alpha virt. eigenvalues --    3.91367   3.92542   3.93144   3.93810   3.95358
 Alpha virt. eigenvalues --    3.95705   3.95921   3.98729   3.98989   3.99632
 Alpha virt. eigenvalues --    4.00271   4.01719   4.01984   4.02232   4.03273
 Alpha virt. eigenvalues --    4.03652   4.03887   4.04422   4.04580   4.05046
 Alpha virt. eigenvalues --    4.05410   4.05993   4.06205   4.06628   4.07104
 Alpha virt. eigenvalues --    4.07706   4.07893   4.08654   4.08930   4.10581
 Alpha virt. eigenvalues --    4.11108   4.11757   4.12305   4.12912   4.13871
 Alpha virt. eigenvalues --    4.14592   4.15143   4.15706   4.16741   4.17532
 Alpha virt. eigenvalues --    4.18090   4.18798   4.20355   4.20836   4.21342
 Alpha virt. eigenvalues --    4.21781   4.22029   4.23623   4.23667   4.24354
 Alpha virt. eigenvalues --    4.24782   4.26483   4.26767   4.26866   4.27158
 Alpha virt. eigenvalues --    4.27574   4.28247   4.28535   4.28892   4.29335
 Alpha virt. eigenvalues --    4.29427   4.29892   4.30538   4.30788   4.31415
 Alpha virt. eigenvalues --    4.31571   4.31796   4.32108   4.32608   4.33519
 Alpha virt. eigenvalues --    4.33741   4.34544   4.35067   4.35302   4.35957
 Alpha virt. eigenvalues --    4.36098   4.36744   4.37572   4.38234   4.38738
 Alpha virt. eigenvalues --    4.39335   4.39538   4.40555   4.41250   4.41262
 Alpha virt. eigenvalues --    4.42291   4.42657   4.43303   4.43562   4.44350
 Alpha virt. eigenvalues --    4.45155   4.46236   4.47128   4.48550   4.49381
 Alpha virt. eigenvalues --    4.50214   4.50992   4.51308   4.52771   4.53285
 Alpha virt. eigenvalues --    4.53538   4.54539   4.55070   4.55367   4.57201
 Alpha virt. eigenvalues --    4.58628   4.58941   4.60614   4.60992   4.62307
 Alpha virt. eigenvalues --    4.62779   4.63966   4.64685   4.65609   4.66514
 Alpha virt. eigenvalues --    4.67072   4.67548   4.68016   4.70177   4.71232
 Alpha virt. eigenvalues --    4.72202   4.73020   4.73975   4.75994   4.78102
 Alpha virt. eigenvalues --    4.80804   4.81418   4.82423   4.84553   4.87424
 Alpha virt. eigenvalues --    4.87756   4.89364   4.89853   4.91267   4.92968
 Alpha virt. eigenvalues --    4.94551   4.96167   4.97443   4.97819   4.98715
 Alpha virt. eigenvalues --    4.99311   5.00146   5.01849   5.02544   5.03479
 Alpha virt. eigenvalues --    5.05039   5.05530   5.06179   5.07180   5.07605
 Alpha virt. eigenvalues --    5.08312   5.08548   5.08721   5.09263   5.09453
 Alpha virt. eigenvalues --    5.10111   5.11312   5.12072   5.13277   5.13544
 Alpha virt. eigenvalues --    5.14339   5.15108   5.15306   5.16009   5.16205
 Alpha virt. eigenvalues --    5.16760   5.17290   5.18935   5.20367   5.21002
 Alpha virt. eigenvalues --    5.22998   5.23812   5.24075   5.24979   5.25732
 Alpha virt. eigenvalues --    5.25910   5.27726   5.29362   5.29771   5.30084
 Alpha virt. eigenvalues --    5.30692   5.31588   5.33143   5.33620   5.35904
 Alpha virt. eigenvalues --    5.36132   5.36591   5.38392   5.39300   5.39826
 Alpha virt. eigenvalues --    5.41465   5.41895   5.45165   5.45501   5.45684
 Alpha virt. eigenvalues --    5.46169   5.47154   5.48569   5.49369   5.49555
 Alpha virt. eigenvalues --    5.52231   5.53852   5.55202   5.55624   5.55895
 Alpha virt. eigenvalues --    5.56175   5.57325   5.57749   5.58631   5.59851
 Alpha virt. eigenvalues --    5.60184   5.60353   5.60752   5.61039   5.61801
 Alpha virt. eigenvalues --    5.63504   5.64023   5.64265   5.65291   5.65843
 Alpha virt. eigenvalues --    5.65981   5.66646   5.67300   5.68510   5.74957
 Alpha virt. eigenvalues --    5.75261   5.75509   5.76591   5.76821   5.77018
 Alpha virt. eigenvalues --    5.78265   5.79761   5.80533   5.82035   5.82802
 Alpha virt. eigenvalues --    5.83116   5.83884   5.86906   5.89300   5.95169
 Alpha virt. eigenvalues --    5.96497   5.98021   6.10975   6.12778   6.12903
 Alpha virt. eigenvalues --    6.13359   6.16177   6.18439   6.18502   6.18688
 Alpha virt. eigenvalues --    6.20470   6.20831   6.21147   6.22828   6.23424
 Alpha virt. eigenvalues --    6.24939   6.29598   6.31848   6.34073   6.35070
 Alpha virt. eigenvalues --    6.36098   6.37917   6.39978   6.40562   6.41218
 Alpha virt. eigenvalues --    6.58562   6.61857   6.63068   6.66578   6.67182
 Alpha virt. eigenvalues --    6.67737   6.72450   6.78195   6.78548   6.80503
 Alpha virt. eigenvalues --    7.26243   7.27766   7.27932   7.28249   7.30240
 Alpha virt. eigenvalues --    7.31600   7.41675   7.42145   7.43275   7.79117
 Alpha virt. eigenvalues --    7.79723   7.80591   7.82928   7.83742   7.84063
 Alpha virt. eigenvalues --   11.51637  11.60732  11.68005  12.55458  12.83227
 Alpha virt. eigenvalues --   12.93344  13.06149  13.13898  13.22188  13.59110
 Alpha virt. eigenvalues --   13.60626  13.64680  13.76125  14.12229  14.12521
 Alpha virt. eigenvalues --   14.14978
          Condensed to atoms (all electrons):
               1          2          3          4          5          6
     1  P   13.849530   0.207270  -0.035532  -0.002519   0.208495  -0.041507
     2  C    0.207270   5.399212   0.251872   0.006274  -0.021579   0.001124
     3  C   -0.035532   0.251872   5.001819  -0.049770   0.001090  -0.000160
     4  C   -0.002519   0.006274  -0.049770   4.911795  -0.000017  -0.000000
     5  C    0.208495  -0.021579   0.001090  -0.000017   5.419417   0.253261
     6  C   -0.041507   0.001124  -0.000160  -0.000000   0.253261   4.968358
     7  C   -0.001686  -0.000013  -0.000001  -0.000000   0.006391  -0.048178
     8  C    0.203509  -0.010551   0.001077   0.000206  -0.006762  -0.002392
     9  C   -0.035485  -0.001890   0.000333   0.000059   0.001913   0.000551
    10  C   -0.001911   0.000358   0.000167  -0.000001   0.000125   0.000060
    11  C   -0.000031  -0.001035   0.000053  -0.000000   0.000045  -0.000006
    12  C   -0.000026  -0.000001   0.000000   0.000000   0.000000   0.005029
    13  C   -0.000234  -0.000077   0.004983   0.303317  -0.000003   0.000000
    14  C    0.239469  -0.025264   0.001520   0.000728  -0.024764   0.004037
    15  H   -0.023022   0.333115  -0.024264  -0.000252  -0.000560   0.000307
    16  H   -0.021781   0.328338  -0.015764   0.000038  -0.001188  -0.000120
    17  H   -0.015852  -0.040879   0.356255  -0.008238  -0.000015  -0.000019
    18  H    0.011512  -0.032737   0.364907  -0.003683   0.000006   0.000006
    19  H   -0.001415   0.000411  -0.002924   0.356503  -0.000004  -0.000000
    20  H    0.001119  -0.000914  -0.006723   0.368856   0.000005   0.000000
    21  H   -0.018229   0.000473   0.000153  -0.000000   0.341244  -0.025784
    22  H   -0.014735  -0.003739  -0.000143   0.000000   0.321022  -0.018811
    23  H   -0.017857  -0.000276  -0.000010  -0.000000  -0.032302   0.364371
    24  H    0.011156   0.000039   0.000005   0.000000  -0.034166   0.372638
    25  H   -0.001717  -0.000010  -0.000000  -0.000000   0.000303  -0.005372
    26  H    0.001110   0.000006   0.000000   0.000000  -0.001103  -0.006579
    27  H   -0.016154  -0.007588  -0.001973  -0.001283   0.002171  -0.000029
    28  H   -0.017324   0.002274  -0.000145   0.000027  -0.000817  -0.000953
    29  H   -0.013247   0.000194  -0.000058  -0.000004   0.002429  -0.001190
    30  H    0.009487  -0.000332   0.000191   0.000006  -0.000670   0.000041
    31  H   -0.001338   0.000210  -0.000064   0.000000   0.001085  -0.000056
    32  H    0.000919  -0.000168   0.000130  -0.000000  -0.000181   0.000006
    33  H   -0.000127   0.000145  -0.000254   0.000003   0.000025  -0.000000
    34  H    0.000315  -0.000431   0.000001  -0.000000  -0.000215   0.000005
    35  H    0.000032  -0.000013  -0.000002   0.000000  -0.000011   0.000000
    36  H    0.000314   0.000003  -0.000000   0.000000  -0.000061  -0.000192
    37  H    0.000024   0.000000   0.000000  -0.000000  -0.000011  -0.000365
    38  H   -0.000181  -0.000001   0.000000  -0.000000   0.000027   0.000127
    39  H    0.000364  -0.000084  -0.000309  -0.035202   0.000004  -0.000000
    40  H   -0.000264   0.000065   0.000129  -0.032098  -0.000000  -0.000000
    41  H    0.000030  -0.000002  -0.000360  -0.028354   0.000000  -0.000000
    42  H   -0.018326  -0.002941   0.000018  -0.000017  -0.000015  -0.000777
    43  H   -0.018443   0.003043  -0.000047   0.000002  -0.004274  -0.000983
    44  H   -0.019757  -0.002137  -0.001858  -0.001539   0.002723  -0.000164
    45  O    0.035973  -0.015499  -0.005424   0.000018  -0.012826   0.000557
    46  O    0.030210  -0.064085   0.262695   0.279540   0.000445   0.000005
    47  O    0.037134   0.000343   0.000007   0.000000  -0.075966   0.273288
               7          8          9         10         11         12
     1  P   -0.001686   0.203509  -0.035485  -0.001911  -0.000031  -0.000026
     2  C   -0.000013  -0.010551  -0.001890   0.000358  -0.001035  -0.000001
     3  C   -0.000001   0.001077   0.000333   0.000167   0.000053   0.000000
     4  C   -0.000000   0.000206   0.000059  -0.000001  -0.000000   0.000000
     5  C    0.006391  -0.006762   0.001913   0.000125   0.000045   0.000000
     6  C   -0.048178  -0.002392   0.000551   0.000060  -0.000006   0.005029
     7  C    4.910204   0.000065   0.000204  -0.000001  -0.000000   0.302488
     8  C    0.000065   5.424195   0.232954   0.006662  -0.000113  -0.000982
     9  C    0.000204   0.232954   5.027209  -0.049770   0.004616   0.000005
    10  C   -0.000001   0.006662  -0.049770   4.918316   0.302287  -0.000000
    11  C   -0.000000  -0.000113   0.004616   0.302287   5.074525  -0.000000
    12  C    0.302488  -0.000982   0.000005  -0.000000  -0.000000   5.073694
    13  C   -0.000000   0.000120  -0.000009  -0.000000  -0.000000  -0.000000
    14  C   -0.000103  -0.015535   0.001050  -0.000012  -0.000002   0.000048
    15  H    0.000000  -0.000018  -0.000927  -0.000574   0.000065   0.000000
    16  H   -0.000000   0.001931  -0.000114  -0.000027   0.000010   0.000000
    17  H   -0.000000   0.003450  -0.001884  -0.000723  -0.000655   0.000000
    18  H    0.000000  -0.000759   0.000092   0.000001   0.000016  -0.000000
    19  H   -0.000000   0.001205  -0.000080  -0.000001  -0.000001   0.000000
    20  H    0.000000  -0.000195   0.000011   0.000000   0.000000  -0.000000
    21  H   -0.000287   0.002262  -0.000146   0.000007   0.000006   0.000014
    22  H    0.000093  -0.006076  -0.002122  -0.000739  -0.000128  -0.000008
    23  H   -0.009443   0.000650  -0.000096  -0.000004   0.000001  -0.000005
    24  H   -0.003598  -0.000351   0.000173   0.000008  -0.000001   0.000145
    25  H    0.356889   0.000304  -0.000063   0.000000   0.000000  -0.034726
    26  H    0.369259  -0.000220   0.000117  -0.000000  -0.000000  -0.028756
    27  H   -0.000018   0.318304  -0.017890  -0.000047   0.000011  -0.000008
    28  H   -0.000570   0.331751  -0.021847  -0.000255   0.000014   0.000005
    29  H   -0.000830  -0.035824   0.357203  -0.010096   0.000156  -0.000537
    30  H    0.000006  -0.034556   0.366785  -0.002636   0.000257   0.000014
    31  H   -0.000001   0.000139  -0.001832   0.354990  -0.037089  -0.000000
    32  H    0.000000  -0.000973  -0.006563   0.371041  -0.028037   0.000000
    33  H   -0.000000   0.000006   0.000151  -0.032548   0.369673  -0.000000
    34  H    0.000000  -0.000048  -0.000266  -0.034151   0.369907   0.000000
    35  H    0.000000  -0.000011  -0.000357  -0.028239   0.363769   0.000000
    36  H   -0.033616  -0.000530   0.000019  -0.000000  -0.000000   0.370228
    37  H   -0.027999  -0.000011  -0.000002   0.000000   0.000000   0.364048
    38  H   -0.032844   0.000244  -0.000273   0.000003   0.000000   0.369765
    39  H    0.000000  -0.000219   0.000013   0.000000   0.000000  -0.000000
    40  H   -0.000000   0.000031  -0.000001  -0.000000  -0.000000   0.000000
    41  H    0.000000  -0.000011   0.000000   0.000000   0.000000  -0.000000
    42  H    0.000029   0.002824  -0.000124  -0.000000   0.000000  -0.000002
    43  H   -0.000136  -0.003741   0.000005   0.000001  -0.000000  -0.000179
    44  H    0.000003  -0.001386   0.000072  -0.000000   0.000000  -0.000000
    45  O    0.000002  -0.072677   0.259304   0.274625  -0.045408   0.000002
    46  O    0.000000  -0.013135   0.000903   0.000001   0.000003  -0.000000
    47  O    0.277774  -0.014631  -0.005582   0.000014   0.000002  -0.046371
              13         14         15         16         17         18
     1  P   -0.000234   0.239469  -0.023022  -0.021781  -0.015852   0.011512
     2  C   -0.000077  -0.025264   0.333115   0.328338  -0.040879  -0.032737
     3  C    0.004983   0.001520  -0.024264  -0.015764   0.356255   0.364907
     4  C    0.303317   0.000728  -0.000252   0.000038  -0.008238  -0.003683
     5  C   -0.000003  -0.024764  -0.000560  -0.001188  -0.000015   0.000006
     6  C    0.000000   0.004037   0.000307  -0.000120  -0.000019   0.000006
     7  C   -0.000000  -0.000103   0.000000  -0.000000  -0.000000   0.000000
     8  C    0.000120  -0.015535  -0.000018   0.001931   0.003450  -0.000759
     9  C   -0.000009   0.001050  -0.000927  -0.000114  -0.001884   0.000092
    10  C   -0.000000  -0.000012  -0.000574  -0.000027  -0.000723   0.000001
    11  C   -0.000000  -0.000002   0.000065   0.000010  -0.000655   0.000016
    12  C   -0.000000   0.000048   0.000000   0.000000   0.000000  -0.000000
    13  C    5.075412   0.000140   0.000004  -0.000041  -0.000100   0.000397
    14  C    0.000140   5.251707   0.002712  -0.000221   0.000472  -0.000675
    15  H    0.000004   0.002712   0.538320  -0.015880   0.000644  -0.003220
    16  H   -0.000041  -0.000221  -0.015880   0.544253   0.006739  -0.009186
    17  H   -0.000100   0.000472   0.000644   0.006739   0.643936  -0.046048
    18  H    0.000397  -0.000675  -0.003220  -0.009186  -0.046048   0.592723
    19  H   -0.039173   0.000051   0.000144   0.000163   0.017213  -0.005452
    20  H   -0.025048  -0.000208  -0.000068  -0.000204  -0.005453   0.010642
    21  H    0.000000  -0.001023  -0.000420   0.001062  -0.000006  -0.000009
    22  H   -0.000000   0.003142   0.001215   0.000287  -0.000188   0.000001
    23  H    0.000000   0.004757  -0.000007  -0.000026  -0.000001   0.000000
    24  H    0.000000  -0.000769  -0.000016   0.000008   0.000000  -0.000000
    25  H    0.000000   0.000783  -0.000000  -0.000000  -0.000000   0.000000
    26  H    0.000000  -0.000149  -0.000000   0.000000  -0.000000   0.000000
    27  H   -0.000144  -0.001320  -0.000307  -0.000256  -0.006338   0.001057
    28  H    0.000016  -0.001800  -0.000118  -0.000107   0.000044   0.000006
    29  H    0.000001  -0.000035  -0.000172  -0.000010   0.000588   0.000004
    30  H   -0.000001   0.000009   0.000133   0.000027  -0.000499  -0.000012
    31  H    0.000000  -0.000008  -0.000239   0.000001   0.000366   0.000003
    32  H   -0.000000   0.000005   0.000220   0.000005  -0.000530  -0.000005
    33  H   -0.000000  -0.000001  -0.000235   0.000004   0.001045   0.000037
    34  H   -0.000000   0.000004   0.001263   0.000006  -0.000234   0.000006
    35  H    0.000000   0.000000   0.000025   0.000002   0.000027  -0.000000
    36  H   -0.000000  -0.000164  -0.000000  -0.000000  -0.000000   0.000000
    37  H    0.000000  -0.000006  -0.000000   0.000000  -0.000000   0.000000
    38  H    0.000000   0.000020   0.000000   0.000000   0.000000   0.000000
    39  H    0.371307  -0.000201  -0.000002  -0.000012  -0.000282   0.000064
    40  H    0.365182  -0.000020   0.000005   0.000040   0.000243  -0.000231
    41  H    0.364239  -0.000017  -0.000001   0.000000  -0.000001   0.000034
    42  H    0.000032   0.350007  -0.000078   0.001092  -0.000060   0.000025
    43  H   -0.000012   0.342255  -0.000080   0.000183   0.000054   0.000008
    44  H   -0.001017   0.342958   0.000040   0.000293   0.000416   0.000093
    45  O    0.000002   0.000383   0.005146   0.000695   0.016431   0.000182
    46  O   -0.050735  -0.015615   0.002495   0.003172  -0.049797  -0.030365
    47  O    0.000000  -0.011431   0.000001   0.000011  -0.000004   0.000000
              19         20         21         22         23         24
     1  P   -0.001415   0.001119  -0.018229  -0.014735  -0.017857   0.011156
     2  C    0.000411  -0.000914   0.000473  -0.003739  -0.000276   0.000039
     3  C   -0.002924  -0.006723   0.000153  -0.000143  -0.000010   0.000005
     4  C    0.356503   0.368856  -0.000000   0.000000  -0.000000   0.000000
     5  C   -0.000004   0.000005   0.341244   0.321022  -0.032302  -0.034166
     6  C   -0.000000   0.000000  -0.025784  -0.018811   0.364371   0.372638
     7  C   -0.000000   0.000000  -0.000287   0.000093  -0.009443  -0.003598
     8  C    0.001205  -0.000195   0.002262  -0.006076   0.000650  -0.000351
     9  C   -0.000080   0.000011  -0.000146  -0.002122  -0.000096   0.000173
    10  C   -0.000001   0.000000   0.000007  -0.000739  -0.000004   0.000008
    11  C   -0.000001   0.000000   0.000006  -0.000128   0.000001  -0.000001
    12  C    0.000000  -0.000000   0.000014  -0.000008  -0.000005   0.000145
    13  C   -0.039173  -0.025048   0.000000  -0.000000   0.000000   0.000000
    14  C    0.000051  -0.000208  -0.001023   0.003142   0.004757  -0.000769
    15  H    0.000144  -0.000068  -0.000420   0.001215  -0.000007  -0.000016
    16  H    0.000163  -0.000204   0.001062   0.000287  -0.000026   0.000008
    17  H    0.017213  -0.005453  -0.000006  -0.000188  -0.000001   0.000000
    18  H   -0.005452   0.010642  -0.000009   0.000001   0.000000  -0.000000
    19  H    0.687346  -0.060851  -0.000000   0.000000   0.000000  -0.000000
    20  H   -0.060851   0.636200   0.000000   0.000000  -0.000000   0.000000
    21  H   -0.000000   0.000000   0.528618  -0.014179  -0.001713  -0.001512
    22  H    0.000000   0.000000  -0.014179   0.542009   0.006684  -0.009822
    23  H    0.000000  -0.000000  -0.001713   0.006684   0.644281  -0.048701
    24  H   -0.000000   0.000000  -0.001512  -0.009822  -0.048701   0.589191
    25  H    0.000000   0.000000   0.000038   0.000128   0.016969  -0.005163
    26  H   -0.000000  -0.000000  -0.000025  -0.000221  -0.005558   0.011825
    27  H   -0.003609   0.000613  -0.000114  -0.000158  -0.000003   0.000026
    28  H   -0.000035  -0.000001  -0.000121  -0.000087  -0.000260   0.000164
    29  H   -0.000003  -0.000000   0.000039  -0.004419   0.000624  -0.000379
    30  H    0.000039  -0.000000   0.000014   0.000850   0.000004  -0.000010
    31  H   -0.000001  -0.000000  -0.000027  -0.002833  -0.000004   0.000030
    32  H    0.000005   0.000000  -0.000000   0.000475  -0.000000  -0.000000
    33  H   -0.000003   0.000000  -0.000001  -0.000071   0.000000   0.000000
    34  H   -0.000000   0.000000   0.000005   0.000632  -0.000001   0.000000
    35  H   -0.000000   0.000000   0.000000   0.000023  -0.000000   0.000000
    36  H   -0.000000   0.000000   0.000000  -0.000005  -0.000206   0.000048
    37  H    0.000000  -0.000000  -0.000001   0.000000   0.000016   0.000037
    38  H   -0.000000  -0.000000   0.000001   0.000009   0.000131  -0.000152
    39  H   -0.009369   0.007456  -0.000000   0.000000  -0.000000   0.000000
    40  H    0.009049  -0.009511  -0.000000  -0.000000   0.000000  -0.000000
    41  H   -0.001180  -0.001596   0.000000  -0.000000  -0.000000   0.000000
    42  H   -0.000009   0.000007   0.000526   0.000066   0.000417  -0.000058
    43  H    0.000019  -0.000001  -0.000022  -0.000247  -0.005946   0.000618
    44  H    0.000337   0.000155  -0.000114  -0.000098  -0.000030   0.000009
    45  O   -0.000119  -0.000000  -0.000054   0.014777  -0.000021  -0.000025
    46  O   -0.052850  -0.036365   0.000008   0.000006  -0.000001   0.000000
    47  O   -0.000000   0.000000   0.002745   0.003111  -0.046294  -0.033495
              25         26         27         28         29         30
     1  P   -0.001717   0.001110  -0.016154  -0.017324  -0.013247   0.009487
     2  C   -0.000010   0.000006  -0.007588   0.002274   0.000194  -0.000332
     3  C   -0.000000   0.000000  -0.001973  -0.000145  -0.000058   0.000191
     4  C   -0.000000   0.000000  -0.001283   0.000027  -0.000004   0.000006
     5  C    0.000303  -0.001103   0.002171  -0.000817   0.002429  -0.000670
     6  C   -0.005372  -0.006579  -0.000029  -0.000953  -0.001190   0.000041
     7  C    0.356889   0.369259  -0.000018  -0.000570  -0.000830   0.000006
     8  C    0.000304  -0.000220   0.318304   0.331751  -0.035824  -0.034556
     9  C   -0.000063   0.000117  -0.017890  -0.021847   0.357203   0.366785
    10  C    0.000000  -0.000000  -0.000047  -0.000255  -0.010096  -0.002636
    11  C    0.000000  -0.000000   0.000011   0.000014   0.000156   0.000257
    12  C   -0.034726  -0.028756  -0.000008   0.000005  -0.000537   0.000014
    13  C    0.000000   0.000000  -0.000144   0.000016   0.000001  -0.000001
    14  C    0.000783  -0.000149  -0.001320  -0.001800  -0.000035   0.000009
    15  H   -0.000000  -0.000000  -0.000307  -0.000118  -0.000172   0.000133
    16  H   -0.000000   0.000000  -0.000256  -0.000107  -0.000010   0.000027
    17  H   -0.000000  -0.000000  -0.006338   0.000044   0.000588  -0.000499
    18  H    0.000000   0.000000   0.001057   0.000006   0.000004  -0.000012
    19  H    0.000000  -0.000000  -0.003609  -0.000035  -0.000003   0.000039
    20  H    0.000000  -0.000000   0.000613  -0.000001  -0.000000  -0.000000
    21  H    0.000038  -0.000025  -0.000114  -0.000121   0.000039   0.000014
    22  H    0.000128  -0.000221  -0.000158  -0.000087  -0.004419   0.000850
    23  H    0.016969  -0.005558  -0.000003  -0.000260   0.000624   0.000004
    24  H   -0.005163   0.011825   0.000026   0.000164  -0.000379  -0.000010
    25  H    0.673431  -0.060094   0.000004  -0.000362   0.000332   0.000003
    26  H   -0.060094   0.643000   0.000004   0.000292  -0.000467  -0.000004
    27  H    0.000004   0.000004   0.538649  -0.016296   0.006248  -0.009281
    28  H   -0.000362   0.000292  -0.016296   0.525624  -0.003096  -0.001523
    29  H    0.000332  -0.000467   0.006248  -0.003096   0.627321  -0.043468
    30  H    0.000003  -0.000004  -0.009281  -0.001523  -0.043468   0.589274
    31  H   -0.000001   0.000004   0.000104   0.000045   0.015410  -0.005178
    32  H   -0.000000   0.000000  -0.000168  -0.000025  -0.005109   0.010592
    33  H    0.000000  -0.000000   0.000004   0.000001   0.000124  -0.000128
    34  H   -0.000000   0.000000  -0.000002   0.000000  -0.000212   0.000039
    35  H    0.000000  -0.000000   0.000000  -0.000001   0.000006   0.000039
    36  H   -0.008469   0.007079   0.000014   0.001587  -0.000227   0.000004
    37  H   -0.000998  -0.001363   0.000002   0.000032   0.000030  -0.000000
    38  H    0.007596  -0.007965   0.000005  -0.000394   0.001087   0.000035
    39  H   -0.000000  -0.000000   0.000868   0.000011  -0.000001   0.000000
    40  H   -0.000000  -0.000000  -0.000147  -0.000002   0.000000   0.000000
    41  H   -0.000000   0.000000   0.000032  -0.000000  -0.000000  -0.000000
    42  H    0.000015  -0.000003  -0.000046   0.000121  -0.000006   0.000007
    43  H   -0.001709   0.000312   0.000203   0.001234  -0.000124  -0.000002
    44  H   -0.000015   0.000000   0.000388  -0.000184  -0.000020   0.000003
    45  O    0.000000  -0.000000   0.002653   0.002457  -0.043652  -0.031666
    46  O   -0.000000   0.000000   0.017841  -0.000200  -0.000023  -0.000027
    47  O   -0.046662  -0.040203   0.000754   0.007205   0.015933   0.000174
              31         32         33         34         35         36
     1  P   -0.001338   0.000919  -0.000127   0.000315   0.000032   0.000314
     2  C    0.000210  -0.000168   0.000145  -0.000431  -0.000013   0.000003
     3  C   -0.000064   0.000130  -0.000254   0.000001  -0.000002  -0.000000
     4  C    0.000000  -0.000000   0.000003  -0.000000   0.000000   0.000000
     5  C    0.001085  -0.000181   0.000025  -0.000215  -0.000011  -0.000061
     6  C   -0.000056   0.000006  -0.000000   0.000005   0.000000  -0.000192
     7  C   -0.000001   0.000000  -0.000000   0.000000   0.000000  -0.033616
     8  C    0.000139  -0.000973   0.000006  -0.000048  -0.000011  -0.000530
     9  C   -0.001832  -0.006563   0.000151  -0.000266  -0.000357   0.000019
    10  C    0.354990   0.371041  -0.032548  -0.034151  -0.028239  -0.000000
    11  C   -0.037089  -0.028037   0.369673   0.369907   0.363769  -0.000000
    12  C   -0.000000   0.000000  -0.000000   0.000000   0.000000   0.370228
    13  C    0.000000  -0.000000  -0.000000  -0.000000   0.000000  -0.000000
    14  C   -0.000008   0.000005  -0.000001   0.000004   0.000000  -0.000164
    15  H   -0.000239   0.000220  -0.000235   0.001263   0.000025  -0.000000
    16  H    0.000001   0.000005   0.000004   0.000006   0.000002  -0.000000
    17  H    0.000366  -0.000530   0.001045  -0.000234   0.000027  -0.000000
    18  H    0.000003  -0.000005   0.000037   0.000006  -0.000000   0.000000
    19  H   -0.000001   0.000005  -0.000003  -0.000000  -0.000000  -0.000000
    20  H   -0.000000   0.000000   0.000000   0.000000   0.000000   0.000000
    21  H   -0.000027  -0.000000  -0.000001   0.000005   0.000000   0.000000
    22  H   -0.002833   0.000475  -0.000071   0.000632   0.000023  -0.000005
    23  H   -0.000004  -0.000000   0.000000  -0.000001  -0.000000  -0.000206
    24  H    0.000030  -0.000000   0.000000   0.000000   0.000000   0.000048
    25  H   -0.000001  -0.000000   0.000000  -0.000000   0.000000  -0.008469
    26  H    0.000004   0.000000  -0.000000   0.000000  -0.000000   0.007079
    27  H    0.000104  -0.000168   0.000004  -0.000002   0.000000   0.000014
    28  H    0.000045  -0.000025   0.000001   0.000000  -0.000001   0.001587
    29  H    0.015410  -0.005109   0.000124  -0.000212   0.000006  -0.000227
    30  H   -0.005178   0.010592  -0.000128   0.000039   0.000039   0.000004
    31  H    0.677201  -0.058976   0.007606  -0.008508  -0.000885   0.000000
    32  H   -0.058976   0.636246  -0.007912   0.007101  -0.001290   0.000000
    33  H    0.007606  -0.007912   0.576084  -0.030425  -0.019327  -0.000000
    34  H   -0.008508   0.007101  -0.030425   0.593826  -0.021765   0.000000
    35  H   -0.000885  -0.001290  -0.019327  -0.021765   0.551111  -0.000000
    36  H    0.000000   0.000000  -0.000000   0.000000  -0.000000   0.590292
    37  H   -0.000000   0.000000   0.000000  -0.000000   0.000000  -0.021754
    38  H   -0.000003  -0.000000   0.000000  -0.000000   0.000000  -0.029895
    39  H   -0.000000   0.000000  -0.000000   0.000000  -0.000000   0.000000
    40  H    0.000000  -0.000000   0.000000  -0.000000  -0.000000  -0.000000
    41  H    0.000000  -0.000000   0.000000  -0.000000   0.000000   0.000000
    42  H   -0.000000   0.000000  -0.000000   0.000000  -0.000000  -0.000003
    43  H    0.000000   0.000000  -0.000000   0.000000   0.000000   0.000430
    44  H   -0.000000   0.000000   0.000000  -0.000000  -0.000000   0.000003
    45  O   -0.048326  -0.039327   0.000445  -0.000245   0.003417   0.000000
    46  O    0.000000  -0.000000  -0.000002   0.000001   0.000000   0.000000
    47  O   -0.000109  -0.000000   0.000000  -0.000000   0.000000  -0.000410
              37         38         39         40         41         42
     1  P    0.000024  -0.000181   0.000364  -0.000264   0.000030  -0.018326
     2  C    0.000000  -0.000001  -0.000084   0.000065  -0.000002  -0.002941
     3  C    0.000000   0.000000  -0.000309   0.000129  -0.000360   0.000018
     4  C   -0.000000  -0.000000  -0.035202  -0.032098  -0.028354  -0.000017
     5  C   -0.000011   0.000027   0.000004  -0.000000   0.000000  -0.000015
     6  C   -0.000365   0.000127  -0.000000  -0.000000  -0.000000  -0.000777
     7  C   -0.027999  -0.032844   0.000000  -0.000000   0.000000   0.000029
     8  C   -0.000011   0.000244  -0.000219   0.000031  -0.000011   0.002824
     9  C   -0.000002  -0.000273   0.000013  -0.000001   0.000000  -0.000124
    10  C    0.000000   0.000003   0.000000  -0.000000   0.000000  -0.000000
    11  C    0.000000   0.000000   0.000000  -0.000000   0.000000   0.000000
    12  C    0.364048   0.369765  -0.000000   0.000000  -0.000000  -0.000002
    13  C    0.000000   0.000000   0.371307   0.365182   0.364239   0.000032
    14  C   -0.000006   0.000020  -0.000201  -0.000020  -0.000017   0.350007
    15  H   -0.000000   0.000000  -0.000002   0.000005  -0.000001  -0.000078
    16  H    0.000000   0.000000  -0.000012   0.000040   0.000000   0.001092
    17  H   -0.000000   0.000000  -0.000282   0.000243  -0.000001  -0.000060
    18  H    0.000000   0.000000   0.000064  -0.000231   0.000034   0.000025
    19  H    0.000000  -0.000000  -0.009369   0.009049  -0.001180  -0.000009
    20  H   -0.000000  -0.000000   0.007456  -0.009511  -0.001596   0.000007
    21  H   -0.000001   0.000001  -0.000000  -0.000000   0.000000   0.000526
    22  H    0.000000   0.000009   0.000000  -0.000000  -0.000000   0.000066
    23  H    0.000016   0.000131  -0.000000   0.000000  -0.000000   0.000417
    24  H    0.000037  -0.000152   0.000000  -0.000000   0.000000  -0.000058
    25  H   -0.000998   0.007596  -0.000000  -0.000000  -0.000000   0.000015
    26  H   -0.001363  -0.007965  -0.000000  -0.000000   0.000000  -0.000003
    27  H    0.000002   0.000005   0.000868  -0.000147   0.000032  -0.000046
    28  H    0.000032  -0.000394   0.000011  -0.000002  -0.000000   0.000121
    29  H    0.000030   0.001087  -0.000001   0.000000  -0.000000  -0.000006
    30  H   -0.000000   0.000035   0.000000   0.000000  -0.000000   0.000007
    31  H   -0.000000  -0.000003  -0.000000   0.000000   0.000000  -0.000000
    32  H    0.000000  -0.000000   0.000000  -0.000000  -0.000000   0.000000
    33  H    0.000000   0.000000  -0.000000   0.000000   0.000000  -0.000000
    34  H   -0.000000  -0.000000   0.000000  -0.000000  -0.000000   0.000000
    35  H    0.000000   0.000000  -0.000000  -0.000000   0.000000  -0.000000
    36  H   -0.021754  -0.029895   0.000000  -0.000000   0.000000  -0.000003
    37  H    0.550253  -0.019205  -0.000000   0.000000   0.000000  -0.000000
    38  H   -0.019205   0.575575  -0.000000   0.000000  -0.000000   0.000000
    39  H   -0.000000  -0.000000   0.595104  -0.031194  -0.021937   0.000009
    40  H    0.000000   0.000000  -0.031194   0.579082  -0.019412  -0.000027
    41  H    0.000000  -0.000000  -0.021937  -0.019412   0.553924  -0.000000
    42  H   -0.000000   0.000000   0.000009  -0.000027  -0.000000   0.530589
    43  H    0.000011  -0.000050  -0.000022   0.000031   0.000001  -0.018992
    44  H    0.000000  -0.000001   0.000420   0.000595   0.000086  -0.012746
    45  O    0.000000  -0.000002  -0.000000   0.000000   0.000000   0.000013
    46  O    0.000000  -0.000000   0.000633   0.003023   0.003364  -0.000540
    47  O    0.003365   0.000637  -0.000000  -0.000000   0.000000  -0.000023
              43         44         45         46         47
     1  P   -0.018443  -0.019757   0.035973   0.030210   0.037134
     2  C    0.003043  -0.002137  -0.015499  -0.064085   0.000343
     3  C   -0.000047  -0.001858  -0.005424   0.262695   0.000007
     4  C    0.000002  -0.001539   0.000018   0.279540   0.000000
     5  C   -0.004274   0.002723  -0.012826   0.000445  -0.075966
     6  C   -0.000983  -0.000164   0.000557   0.000005   0.273288
     7  C   -0.000136   0.000003   0.000002   0.000000   0.277774
     8  C   -0.003741  -0.001386  -0.072677  -0.013135  -0.014631
     9  C    0.000005   0.000072   0.259304   0.000903  -0.005582
    10  C    0.000001  -0.000000   0.274625   0.000001   0.000014
    11  C   -0.000000   0.000000  -0.045408   0.000003   0.000002
    12  C   -0.000179  -0.000000   0.000002  -0.000000  -0.046371
    13  C   -0.000012  -0.001017   0.000002  -0.050735   0.000000
    14  C    0.342255   0.342958   0.000383  -0.015615  -0.011431
    15  H   -0.000080   0.000040   0.005146   0.002495   0.000001
    16  H    0.000183   0.000293   0.000695   0.003172   0.000011
    17  H    0.000054   0.000416   0.016431  -0.049797  -0.000004
    18  H    0.000008   0.000093   0.000182  -0.030365   0.000000
    19  H    0.000019   0.000337  -0.000119  -0.052850  -0.000000
    20  H   -0.000001   0.000155  -0.000000  -0.036365   0.000000
    21  H   -0.000022  -0.000114  -0.000054   0.000008   0.002745
    22  H   -0.000247  -0.000098   0.014777   0.000006   0.003111
    23  H   -0.005946  -0.000030  -0.000021  -0.000001  -0.046294
    24  H    0.000618   0.000009  -0.000025   0.000000  -0.033495
    25  H   -0.001709  -0.000015   0.000000  -0.000000  -0.046662
    26  H    0.000312   0.000000  -0.000000   0.000000  -0.040203
    27  H    0.000203   0.000388   0.002653   0.017841   0.000754
    28  H    0.001234  -0.000184   0.002457  -0.000200   0.007205
    29  H   -0.000124  -0.000020  -0.043652  -0.000023   0.015933
    30  H   -0.000002   0.000003  -0.031666  -0.000027   0.000174
    31  H    0.000000  -0.000000  -0.048326   0.000000  -0.000109
    32  H    0.000000   0.000000  -0.039327  -0.000000  -0.000000
    33  H   -0.000000   0.000000   0.000445  -0.000002   0.000000
    34  H    0.000000  -0.000000  -0.000245   0.000001  -0.000000
    35  H    0.000000  -0.000000   0.003417   0.000000   0.000000
    36  H    0.000430   0.000003   0.000000   0.000000  -0.000410
    37  H    0.000011   0.000000   0.000000   0.000000   0.003365
    38  H   -0.000050  -0.000001  -0.000002  -0.000000   0.000637
    39  H   -0.000022   0.000420  -0.000000   0.000633  -0.000000
    40  H    0.000031   0.000595   0.000000   0.003023  -0.000000
    41  H    0.000001   0.000086   0.000000   0.003364   0.000000
    42  H   -0.018992  -0.012746   0.000013  -0.000540  -0.000023
    43  H    0.533836  -0.011436   0.000010   0.000705   0.010541
    44  H   -0.011436   0.487262  -0.000003   0.018013   0.000004
    45  O    0.000010  -0.000003   8.002894   0.000042   0.000040
    46  O    0.000705   0.018013   0.000042   7.996257   0.000001
    47  O    0.010541   0.000004   0.000040   0.000001   7.986972
 Mulliken charges:
               1
     1  P    0.490726
     2  C   -0.302522
     3  C   -0.101622
     4  C   -0.064395
     5  C   -0.344719
     6  C   -0.090135
     7  C   -0.064085
     8  C   -0.310185
     9  C   -0.106418
    10  C   -0.066932
    11  C   -0.372907
    12  C   -0.373883
    13  C   -0.368554
    14  C   -0.446913
    15  H    0.184606
    16  H    0.176578
    17  H    0.129883
    18  H    0.150558
    19  H    0.104597
    20  H    0.122073
    21  H    0.186575
    22  H    0.184301
    23  H    0.129860
    24  H    0.152096
    25  H    0.108567
    26  H    0.119700
    27  H    0.193220
    28  H    0.193613
    29  H    0.135477
    30  H    0.151960
    31  H    0.108281
    32  H    0.122519
    33  H    0.135681
    34  H    0.123392
    35  H    0.153449
    36  H    0.125509
    37  H    0.153896
    38  H    0.135703
    39  H    0.122582
    40  H    0.135433
    41  H    0.151161
    42  H    0.168994
    43  H    0.172945
    44  H    0.198630
    45  O   -0.304794
    46  O   -0.305625
    47  O   -0.298875
 Sum of Mulliken charges =   1.00000
 Mulliken charges with hydrogens summed into heavy atoms:
               1
     1  P    0.490726
     2  C    0.058662
     3  C    0.178819
     4  C    0.162275
     5  C    0.026157
     6  C    0.191822
     7  C    0.164182
     8  C    0.076648
     9  C    0.181018
    10  C    0.163868
    11  C    0.039615
    12  C    0.041225
    13  C    0.040622
    14  C    0.093655
    45  O   -0.304794
    46  O   -0.305625
    47  O   -0.298875
 Electronic spatial extent (au):  <R**2>=           5956.3938
 Charge=              1.0000 electrons
 Dipole moment (field-independent basis, Debye):
    X=              0.8442    Y=             -0.5320    Z=              1.6959  Tot=              1.9677
 Quadrupole moment (field-independent basis, Debye-Ang):
   XX=            -80.0370   YY=            -92.3746   ZZ=            -99.8777
   XY=             -2.8690   XZ=              2.2523   YZ=             -0.2222
 Traceless Quadrupole moment (field-independent basis, Debye-Ang):
   XX=             10.7261   YY=             -1.6115   ZZ=             -9.1146
   XY=             -2.8690   XZ=              2.2523   YZ=             -0.2222
 Octapole moment (field-independent basis, Debye-Ang**2):
  XXX=             -1.3531  YYY=             33.0482  ZZZ=              1.0533  XYY=              8.1278
  XXY=            -39.9292  XXZ=            -21.2967  XZZ=              0.6826  YZZ=             -8.4620
  YYZ=             -1.6459  XYZ=             -4.2439
 Hexadecapole moment (field-independent basis, Debye-Ang**3):
 XXXX=          -3565.2294 YYYY=          -2309.3335 ZZZZ=          -1014.0519 XXXY=              5.0982
 XXXZ=             -8.0461 YYYX=             55.8760 YYYZ=           -149.8811 ZZZX=            -31.2760
 ZZZY=           -166.9486 XXYY=          -1070.3728 XXZZ=           -794.1940 YYZZ=           -591.4598
 XXYZ=              8.5816 YYXZ=            -14.5641 ZZXY=             18.1525
 N-N= 1.567744799283D+03 E-N=-5.645842727807D+03  KE= 1.076572094538D+03
 Breneman (CHELPG) radii used.
 Generate Potential Derived Charges using the Breneman model, NDens= 1.
 Grid spacing= 0.300 Box extension= 2.800
 NStep X,Y,Z=   53     47     37   Total possible points=       92167
 Number of Points to Fit=   23844

 **********************************************************************

          Electrostatic Properties Using The MP2 Density

 **********************************************************************

       Atomic Center    1 is at  -0.038795 -0.499431  0.699235
       Atomic Center    2 is at  -1.506917  0.207551  1.530574
       Atomic Center    3 is at  -2.704876  0.361902  0.602196
       Atomic Center    4 is at  -4.013750 -0.876582 -0.961816
       Atomic Center    5 is at   1.401854 -0.039328  1.727531
       Atomic Center    6 is at   2.651364 -0.855723  1.417019
       Atomic Center    7 is at   4.020363 -1.518937 -0.421559
       Atomic Center    8 is at   0.127760  0.103867 -1.016375
       Atomic Center    9 is at   0.673957  1.523324 -1.087737
       Atomic Center   10 is at   0.328809  3.687805 -0.137770
       Atomic Center   11 is at  -0.466067  4.393462  0.940358
       Atomic Center   12 is at   4.072702 -1.470089 -1.933636
       Atomic Center   13 is at  -4.062709 -2.215390 -1.666724
       Atomic Center   14 is at  -0.182874 -2.302659  0.658052
       Atomic Center   15 is at  -1.215018  1.180039  1.927637
       Atomic Center   16 is at  -1.742240 -0.461282  2.363500
       Atomic Center   17 is at  -2.530375  1.187745 -0.098273
       Atomic Center   18 is at  -3.596320  0.602090  1.194725
       Atomic Center   19 is at  -3.929819 -0.051548 -1.681940
       Atomic Center   20 is at  -4.918708 -0.711020 -0.364459
       Atomic Center   21 is at   1.108617 -0.173632  2.772647
       Atomic Center   22 is at   1.569202  1.027186  1.566685
       Atomic Center   23 is at   2.545793 -1.885750  1.784829
       Atomic Center   24 is at   3.514670 -0.410267  1.926952
       Atomic Center   25 is at   4.003449 -2.554980 -0.058629
       Atomic Center   26 is at   4.891696 -1.020567  0.020643
       Atomic Center   27 is at  -0.866024  0.025631 -1.460333
       Atomic Center   28 is at   0.799498 -0.586338 -1.526282
       Atomic Center   29 is at   1.747363  1.526214 -0.863267
       Atomic Center   30 is at   0.537619  1.919353 -2.101516
       Atomic Center   31 is at   1.408293  3.774924  0.043832
       Atomic Center   32 is at   0.118765  4.114105 -1.126405
       Atomic Center   33 is at  -1.538340  4.299629  0.755442
       Atomic Center   34 is at  -0.241521  3.979956  1.926696
       Atomic Center   35 is at  -0.215511  5.456253  0.955284
       Atomic Center   36 is at   3.213666 -1.983540 -2.372313
       Atomic Center   37 is at   4.978910 -1.962915 -2.291995
       Atomic Center   38 is at   4.084574 -0.437169 -2.288103
       Atomic Center   39 is at  -3.165697 -2.372354 -2.270744
       Atomic Center   40 is at  -4.147321 -3.030183 -0.944598
       Atomic Center   41 is at  -4.929162 -2.257076 -2.330205
       Atomic Center   42 is at  -0.250664 -2.691825  1.675480
       Atomic Center   43 is at   0.690824 -2.724237  0.160949
       Atomic Center   44 is at  -1.093293 -2.557046  0.117001
       Atomic Center   45 is at  -0.038029  2.301271 -0.140044
       Atomic Center   46 is at  -2.872127 -0.860215 -0.093046
       Atomic Center   47 is at   2.828409 -0.848229  0.014501
   23844 points will be used for fitting atomic charges
 Fitting point charges to electrostatic potential
 The dipole moment will be constrained to the correct value
 Charges from ESP fit, RMS=   0.00179 RRMS=   0.01834:
 ESP charges:
               1
     1  P    0.530117
     2  C   -0.200202
     3  C    0.139714
     4  C    0.182594
     5  C   -0.170875
     6  C    0.124683
     7  C    0.167490
     8  C   -0.196337
     9  C    0.123132
    10  C    0.140770
    11  C   -0.186774
    12  C   -0.211509
    13  C   -0.165597
    14  C   -0.384823
    15  H    0.075202
    16  H    0.115483
    17  H    0.001829
    18  H    0.068751
    19  H    0.021259
    20  H    0.026892
    21  H    0.088112
    22  H    0.107294
    23  H    0.016435
    24  H    0.050049
    25  H    0.018689
    26  H    0.032150
    27  H    0.134463
    28  H    0.083217
    29  H    0.006370
    30  H    0.052815
    31  H    0.028025
    32  H    0.035090
    33  H    0.065806
    34  H    0.054826
    35  H    0.080852
    36  H    0.066523
    37  H    0.086299
    38  H    0.068127
    39  H    0.047712
    40  H    0.068551
    41  H    0.068337
    42  H    0.154095
    43  H    0.154317
    44  H    0.129024
    45  O   -0.268428
    46  O   -0.352227
    47  O   -0.278322
 Sum of ESP charges =   1.00000
 ESP charges with hydrogens summed into heavy atoms:
               1
     1  P    0.530117
     2  C   -0.009517
     3  C    0.210295
     4  C    0.230745
     5  C    0.024531
     6  C    0.191167
     7  C    0.218330
     8  C    0.021342
     9  C    0.182317
    10  C    0.203885
    11  C    0.014710
    12  C    0.009439
    13  C    0.019003
    14  C    0.052613
    45  O   -0.268428
    46  O   -0.352227
    47  O   -0.278322
 Charge=   1.00000 Dipole=     0.8442    -0.5320     1.6959 Tot=     1.9677
 -----------------------------------------------------------------

              Electrostatic Properties (Atomic Units)

 -----------------------------------------------------------------
    Center     Electric         -------- Electric Field --------
               Potential          X             Y             Z
 -----------------------------------------------------------------
    1 Atom    -53.928140
    2 Atom    -14.596205
    3 Atom    -14.569410
    4 Atom    -14.593669
    5 Atom    -14.590945
    6 Atom    -14.560951
    7 Atom    -14.588586
    8 Atom    -14.598233
    9 Atom    -14.567626
   10 Atom    -14.589967
   11 Atom    -14.658388
   12 Atom    -14.657803
   13 Atom    -14.663004
   14 Atom    -14.606038
   15 Atom     -0.946888
   16 Atom     -0.947243
   17 Atom     -0.988561
   18 Atom     -0.985103
   19 Atom     -1.007469
   20 Atom     -1.009069
   21 Atom     -0.935672
   22 Atom     -0.944674
   23 Atom     -0.978909
   24 Atom     -0.978380
   25 Atom     -1.002503
   26 Atom     -1.003897
   27 Atom     -0.951107
   28 Atom     -0.947463
   29 Atom     -0.986854
   30 Atom     -0.983063
   31 Atom     -1.003773
   32 Atom     -1.005386
   33 Atom     -1.010950
   34 Atom     -1.009436
   35 Atom     -1.006587
   36 Atom     -1.009011
   37 Atom     -1.005991
   38 Atom     -1.010355
   39 Atom     -1.014158
   40 Atom     -1.015881
   41 Atom     -1.010884
   42 Atom     -0.941539
   43 Atom     -0.944353
   44 Atom     -0.947622
   45 Atom    -22.201568
   46 Atom    -22.205758
   47 Atom    -22.199282
 -----------------------------------------------------------------
 1\1\GINC-CX1-100-2-3\SP\RMP2-Full\CC-pVTZ\C13H30O3P1\FDP18\29-Nov-2020
 \0\\# RMP2=(semidirect,full)/cc-pVTZ int=ultrafine symmetry=none scf=c
 onver=11 Density=current pop=(minimal,CHELPG,Dipole)\\Title Card Requi
 red\\1,1\P,0,-0.0387945293,-0.4994309111,0.6992352372\C,0,-1.506916657
 9,0.2075507892,1.5305743854\C,0,-2.7048762946,0.3619021848,0.602196280
 6\C,0,-4.0137496943,-0.8765824928,-0.9618162399\C,0,1.4018535587,-0.03
 93277422,1.7275306775\C,0,2.6513638654,-0.8557225151,1.4170193476\C,0,
 4.0203632539,-1.5189368424,-0.421558631\C,0,0.1277603236,0.103867222,-
 1.0163754703\C,0,0.6739571991,1.5233243171,-1.0877371776\C,0,0.3288086
 207,3.6878052848,-0.1377702354\C,0,-0.4660665617,4.3934621667,0.940358
 3513\C,0,4.0727017894,-1.4700885784,-1.933636133\C,0,-4.0627094227,-2.
 2153902535,-1.6667240368\C,0,-0.1828740305,-2.3026589666,0.6580524654\
 H,0,-1.2150182346,1.1800394274,1.9276365735\H,0,-1.7422401338,-0.46128
 15078,2.3635003419\H,0,-2.5303752381,1.1877453101,-0.0982726309\H,0,-3
 .5963198711,0.6020903296,1.1947247842\H,0,-3.9298191311,-0.0515484366,
 -1.6819395119\H,0,-4.9187082709,-0.7110197006,-0.3644591413\H,0,1.1086
 166596,-0.1736317298,2.7726473521\H,0,1.569202487,1.027185928,1.566685
 0325\H,0,2.5457928429,-1.8857499445,1.7848290951\H,0,3.5146701026,-0.4
 102666367,1.926951922\H,0,4.003448811,-2.5549797098,-0.0586293523\H,0,
 4.891696261,-1.0205666812,0.0206426414\H,0,-0.8660237028,0.025631106,-
 1.4603334654\H,0,0.7994982422,-0.5863382542,-1.5262819413\H,0,1.747362
 7414,1.5262142585,-0.8632669351\H,0,0.5376194639,1.9193528466,-2.10151
 57422\H,0,1.408293043,3.7749243162,0.0438324705\H,0,0.1187648675,4.114
 1048546,-1.1264046471\H,0,-1.5383399796,4.2996288731,0.7554415619\H,0,
 -0.2415206354,3.9799555474,1.9266964456\H,0,-0.2155111937,5.4562534985
 ,0.9552841781\H,0,3.21366578,-1.983540039,-2.3723129139\H,0,4.97891007
 76,-1.962915291,-2.291994786\H,0,4.0845735395,-0.4371685097,-2.2881032
 997\H,0,-3.1656973495,-2.37235446,-2.2707443394\H,0,-4.1473214712,-3.0
 301834022,-0.9445975825\H,0,-4.9291618421,-2.2570759227,-2.3302052712\
 H,0,-0.2506635769,-2.6918249725,1.6754797714\H,0,0.6908240352,-2.72423
 73441,0.1609490032\H,0,-1.0932925826,-2.5570455088,0.1170008872\O,0,-0
 .0380293216,2.3012711984,-0.1400443103\O,0,-2.872127104,-0.8602145646,
 -0.0930462172\O,0,2.8284092645,-0.8482285413,0.014501206\\Version=ES64
 L-G09RevE.01\HF=-1075.1722872\MP2=-1078.6008442\RMSD=7.005e-12\Dipole=
 0.3111299,-0.2667317,0.615108\Quadrupole=7.9745962,-1.198134,-6.776462
 1,-2.1330191,1.6745386,-0.1652124\PG=Unknown\\@


 WHAT, THEN, IS TIME?  IF NO ONE ASKS ME, I KNOW WHAT IT IS.
 IF I WISH TO EXPLAIN WHAT IT IS TO HIM WHO ASKS ME, I DO NOT KNOW.
                                   -- ST. AUGUSTINE (FIFTH CENTURY)
 Job cpu time:      23 days  3 hours 42 minutes 59.4 seconds.
 File lengths (MBytes):  RWF= 859788 Int=      0 D2E=      0 Chk=     67 Scr=      1
 Normal termination of Gaussian 09 at Sun Nov 29 22:09:09 2020.
