 Entering Gaussian System, Link 0=g09
 Initial command:
 /apps/gaussian/g09_e01/g09/l1.exe "/rds/general/user/fdp18/home/gaussian/padua/forcefield_phosphonium/Gau-1126382.inp" -scrdir="/rds/general/user/fdp18/home/gaussian/padua/forcefield_phosphonium/"
 Entering Link 1 = /apps/gaussian/g09_e01/g09/l1.exe PID=   1126384.
  
 Copyright (c) 1988,1990,1992,1993,1995,1998,2003,2009,2015,
            Gaussian, Inc.  All Rights Reserved.
  
 This is part of the Gaussian(R) 09 program.  It is based on
 the Gaussian(R) 03 system (copyright 2003, Gaussian, Inc.),
 the Gaussian(R) 98 system (copyright 1998, Gaussian, Inc.),
 the Gaussian(R) 94 system (copyright 1995, Gaussian, Inc.),
 the Gaussian 92(TM) system (copyright 1992, Gaussian, Inc.),
 the Gaussian 90(TM) system (copyright 1990, Gaussian, Inc.),
 the Gaussian 88(TM) system (copyright 1988, Gaussian, Inc.),
 the Gaussian 86(TM) system (copyright 1986, Carnegie Mellon
 University), and the Gaussian 82(TM) system (copyright 1983,
 Carnegie Mellon University). Gaussian is a federally registered
 trademark of Gaussian, Inc.
  
 This software contains proprietary and confidential information,
 including trade secrets, belonging to Gaussian, Inc.
  
 This software is provided under written license and may be
 used, copied, transmitted, or stored only in accord with that
 written license.
  
 The following legend is applicable only to US Government
 contracts under FAR:
  
                    RESTRICTED RIGHTS LEGEND
  
 Use, reproduction and disclosure by the US Government is
 subject to restrictions as set forth in subparagraphs (a)
 and (c) of the Commercial Computer Software - Restricted
 Rights clause in FAR 52.227-19.
  
 Gaussian, Inc.
 340 Quinnipiac St., Bldg. 40, Wallingford CT 06492
  
  
 ---------------------------------------------------------------
 Warning -- This program may not be used in any manner that
 competes with the business of Gaussian, Inc. or will provide
 assistance to any competitor of Gaussian, Inc.  The licensee
 of this program is prohibited from giving any competitor of
 Gaussian, Inc. access to this program.  By using this program,
 the user acknowledges that Gaussian, Inc. is engaged in the
 business of creating and licensing software in the field of
 computational chemistry and represents and warrants to the
 licensee that it is not a competitor of Gaussian, Inc. and that
 it will not use this program in any manner prohibited above.
 ---------------------------------------------------------------
  

 Cite this work as:
 Gaussian 09, Revision E.01,
 M. J. Frisch, G. W. Trucks, H. B. Schlegel, G. E. Scuseria, 
 M. A. Robb, J. R. Cheeseman, G. Scalmani, V. Barone, B. Mennucci, 
 G. A. Petersson, H. Nakatsuji, M. Caricato, X. Li, H. P. Hratchian, 
 A. F. Izmaylov, J. Bloino, G. Zheng, J. L. Sonnenberg, M. Hada, 
 M. Ehara, K. Toyota, R. Fukuda, J. Hasegawa, M. Ishida, T. Nakajima, 
 Y. Honda, O. Kitao, H. Nakai, T. Vreven, J. A. Montgomery, Jr., 
 J. E. Peralta, F. Ogliaro, M. Bearpark, J. J. Heyd, E. Brothers, 
 K. N. Kudin, V. N. Staroverov, T. Keith, R. Kobayashi, J. Normand, 
 K. Raghavachari, A. Rendell, J. C. Burant, S. S. Iyengar, J. Tomasi, 
 M. Cossi, N. Rega, J. M. Millam, M. Klene, J. E. Knox, J. B. Cross, 
 V. Bakken, C. Adamo, J. Jaramillo, R. Gomperts, R. E. Stratmann, 
 O. Yazyev, A. J. Austin, R. Cammi, C. Pomelli, J. W. Ochterski, 
 R. L. Martin, K. Morokuma, V. G. Zakrzewski, G. A. Voth, 
 P. Salvador, J. J. Dannenberg, S. Dapprich, A. D. Daniels, 
 O. Farkas, J. B. Foresman, J. V. Ortiz, J. Cioslowski, 
 and D. J. Fox, Gaussian, Inc., Wallingford CT, 2013.
 
 ******************************************
 Gaussian 09:  ES64L-G09RevE.01 30-Nov-2015
                30-Nov-2020 
 ******************************************
 %nprocshared=48
 Will use up to   48 processors via shared memory.
 %mem=100GB
 %chk=P2O231.chk
 ----------------------------------------------------------------------
 # freq rb3lyp/6-311+g(d,p) empiricaldispersion=gd3bj int=ultrafine scf
 =conver=10 symmetry=none pop=(minimal,CHELPG,Dipole) guess=read
 ----------------------------------------------------------------------
 1/10=4,30=1,38=1/1,3;
 2/12=2,15=3,17=6,18=5,40=1/2;
 3/5=4,6=6,7=111,11=2,16=1,25=1,30=1,71=2,74=-5,75=-5,116=1,124=41,140=1/1,2,3;
 4/5=1/1;
 5/5=2,6=10,38=6,98=1/2;
 8/6=4,10=90,11=11/1;
 11/6=1,8=1,9=11,15=111,16=1,31=1/1,2,10;
 10/6=1,31=1/2;
 6/7=2,8=2,9=2,10=2,15=24,18=1,20=3,28=1/1,2;
 7/8=1,10=1,25=1,30=1/1,2,3,16;
 1/10=4,30=1/3;
 99//99;
 -------------------
 Title Card Required
 -------------------
 Symbolic Z-matrix:
 Charge =  1 Multiplicity = 1
 P                    -0.03879  -0.49943   0.69924 
 C                    -1.50692   0.20755   1.53057 
 C                    -2.70488   0.3619    0.6022 
 C                    -4.01375  -0.87658  -0.96182 
 C                     1.40185  -0.03933   1.72753 
 C                     2.65136  -0.85572   1.41702 
 C                     4.02036  -1.51894  -0.42156 
 C                     0.12776   0.10387  -1.01638 
 C                     0.67396   1.52332  -1.08774 
 C                     0.32881   3.68781  -0.13777 
 C                    -0.46607   4.39346   0.94036 
 C                     4.0727   -1.47009  -1.93364 
 C                    -4.06271  -2.21539  -1.66672 
 C                    -0.18287  -2.30266   0.65805 
 H                    -1.21502   1.18004   1.92764 
 H                    -1.74224  -0.46128   2.3635 
 H                    -2.53038   1.18775  -0.09827 
 H                    -3.59632   0.60209   1.19472 
 H                    -3.92982  -0.05155  -1.68194 
 H                    -4.91871  -0.71102  -0.36446 
 H                     1.10862  -0.17363   2.77265 
 H                     1.5692    1.02719   1.56669 
 H                     2.54579  -1.88575   1.78483 
 H                     3.51467  -0.41027   1.92695 
 H                     4.00345  -2.55498  -0.05863 
 H                     4.8917   -1.02057   0.02064 
 H                    -0.86602   0.02563  -1.46033 
 H                     0.7995   -0.58634  -1.52628 
 H                     1.74736   1.52621  -0.86327 
 H                     0.53762   1.91935  -2.10152 
 H                     1.40829   3.77492   0.04383 
 H                     0.11876   4.1141   -1.1264 
 H                    -1.53834   4.29963   0.75544 
 H                    -0.24152   3.97996   1.9267 
 H                    -0.21551   5.45625   0.95528 
 H                     3.21367  -1.98354  -2.37231 
 H                     4.97891  -1.96292  -2.29199 
 H                     4.08457  -0.43717  -2.2881 
 H                    -3.1657   -2.37235  -2.27074 
 H                    -4.14732  -3.03018  -0.9446 
 H                    -4.92916  -2.25708  -2.33021 
 H                    -0.25066  -2.69182   1.67548 
 H                     0.69082  -2.72424   0.16095 
 H                    -1.09329  -2.55705   0.117 
 O                    -0.03803   2.30127  -0.14004 
 O                    -2.87213  -0.86021  -0.09305 
 O                     2.82841  -0.84823   0.0145 
 

 GradGradGradGradGradGradGradGradGradGradGradGradGradGradGradGradGradGrad
 Berny optimization.
 Initialization pass.
 Trust Radius=3.00D-01 FncErr=1.00D-07 GrdErr=1.00D-07
 Number of steps in this run=      2 maximum allowed number of steps=      2.
 GradGradGradGradGradGradGradGradGradGradGradGradGradGradGradGradGradGrad

                          Input orientation:                          
 ---------------------------------------------------------------------
 Center     Atomic      Atomic             Coordinates (Angstroms)
 Number     Number       Type             X           Y           Z
 ---------------------------------------------------------------------
      1         15           0       -0.038795   -0.499431    0.699235
      2          6           0       -1.506917    0.207551    1.530574
      3          6           0       -2.704876    0.361902    0.602196
      4          6           0       -4.013750   -0.876582   -0.961816
      5          6           0        1.401854   -0.039328    1.727531
      6          6           0        2.651364   -0.855723    1.417019
      7          6           0        4.020363   -1.518937   -0.421559
      8          6           0        0.127760    0.103867   -1.016375
      9          6           0        0.673957    1.523324   -1.087737
     10          6           0        0.328809    3.687805   -0.137770
     11          6           0       -0.466067    4.393462    0.940358
     12          6           0        4.072702   -1.470089   -1.933636
     13          6           0       -4.062709   -2.215390   -1.666724
     14          6           0       -0.182874   -2.302659    0.658052
     15          1           0       -1.215018    1.180039    1.927637
     16          1           0       -1.742240   -0.461282    2.363500
     17          1           0       -2.530375    1.187745   -0.098273
     18          1           0       -3.596320    0.602090    1.194725
     19          1           0       -3.929819   -0.051548   -1.681940
     20          1           0       -4.918708   -0.711020   -0.364459
     21          1           0        1.108617   -0.173632    2.772647
     22          1           0        1.569202    1.027186    1.566685
     23          1           0        2.545793   -1.885750    1.784829
     24          1           0        3.514670   -0.410267    1.926952
     25          1           0        4.003449   -2.554980   -0.058629
     26          1           0        4.891696   -1.020567    0.020643
     27          1           0       -0.866024    0.025631   -1.460333
     28          1           0        0.799498   -0.586338   -1.526282
     29          1           0        1.747363    1.526214   -0.863267
     30          1           0        0.537619    1.919353   -2.101516
     31          1           0        1.408293    3.774924    0.043832
     32          1           0        0.118765    4.114105   -1.126405
     33          1           0       -1.538340    4.299629    0.755442
     34          1           0       -0.241521    3.979956    1.926696
     35          1           0       -0.215511    5.456253    0.955284
     36          1           0        3.213666   -1.983540   -2.372313
     37          1           0        4.978910   -1.962915   -2.291995
     38          1           0        4.084574   -0.437169   -2.288103
     39          1           0       -3.165697   -2.372354   -2.270744
     40          1           0       -4.147321   -3.030183   -0.944598
     41          1           0       -4.929162   -2.257076   -2.330205
     42          1           0       -0.250664   -2.691825    1.675480
     43          1           0        0.690824   -2.724237    0.160949
     44          1           0       -1.093293   -2.557046    0.117001
     45          8           0       -0.038029    2.301271   -0.140044
     46          8           0       -2.872127   -0.860215   -0.093046
     47          8           0        2.828409   -0.848229    0.014501
 ---------------------------------------------------------------------
                    Distance matrix (angstroms):
                    1          2          3          4          5
     1  P    0.000000
     2  C    1.829298   0.000000
     3  C    2.803445   1.523423   0.000000
     4  C    4.324535   3.697508   2.386028   0.000000
     5  C    1.828812   2.925865   4.276984   6.104289   0.000000
     6  C    2.806975   4.293570   5.553004   7.076937   1.524531
     7  C    4.332705   6.110843   7.057937   8.077838   3.696542
     8  C    1.826206   3.028180   3.272642   4.256332   3.028670
     9  C    2.791563   3.652811   3.952378   5.267827   3.301128
    10  C    4.285867   4.273808   4.562064   6.353778   4.303753
    11  C    4.917429   4.353571   4.623862   6.631568   4.874258
    12  C    4.977810   6.778449   7.464730   8.166234   4.752331
    13  C    4.973346   4.756620   3.692445   1.513836   6.790999
    14  C    1.809444   2.969097   3.669264   4.396962   2.962737
    15  H    2.390208   1.090228   2.155416   4.517912   2.893945
    16  H    2.381798   1.093837   2.169445   4.048452   3.235402
    17  H    3.112966   2.159026   1.096870   2.684689   4.505740
    18  H    3.756973   2.152687   1.097020   2.647903   5.067251
    19  H    4.583739   4.032100   2.624634   1.098318   6.328615
    20  H    4.998977   4.009395   2.643225   1.096903   6.691569
    21  H    2.392015   2.920455   4.420451   6.378009   1.093752
    22  H    2.380900   3.183648   4.431771   6.417710   1.091480
    23  H    3.127377   4.568480   5.832674   7.182623   2.172822
    24  H    3.760632   5.074953   6.405777   8.077100   2.154381
    25  H    4.597757   6.365632   7.344829   8.240645   4.035737
    26  H    5.004179   6.688080   7.743212   8.960632   4.006906
    27  H    2.371442   3.064208   2.783610   3.312203   3.912795
    28  H    2.379751   3.910777   4.208351   4.854917   3.354005
    29  H    3.120098   4.249669   4.829662   6.242881   3.046725
    30  H    3.745260   4.505827   4.499943   5.461788   4.386904
    31  H    4.560014   4.840971   5.373886   7.214319   4.169340
    32  H    4.964121   4.996353   5.004002   6.481645   5.200218
    33  H    5.028198   4.164964   4.109742   5.989139   5.330688
    34  H    4.648942   3.998647   4.573044   6.794055   4.346836
    35  H    5.963805   5.435767   5.681023   7.629332   5.780454
    36  H    4.713331   6.505175   7.026944   7.446502   4.885831
    37  H    6.022176   7.835107   8.533563   9.155186   5.714202
    38  H    5.092174   6.801671   7.422195   8.217966   4.845676
    39  H    4.701717   4.884413   3.992781   2.160976   6.503210
    40  H    5.097734   4.856041   3.997432   2.157808   6.846812
    41  H    6.015191   5.717671   4.517242   2.148541   7.839986
    42  H    2.409260   3.163155   4.062062   4.940774   3.125582
    43  H    2.402469   3.911690   4.609744   5.177591   3.188806
    44  H    2.384269   3.132454   3.369402   3.537919   3.893387
    45  O    2.923752   3.054875   3.379962   5.155620   3.322575
    46  O    2.964059   2.374882   1.415946   1.434689   4.717549
    47  O    2.968397   4.712558   5.694475   6.911522   2.371466
                    6          7          8          9         10
     6  C    0.000000
     7  C    2.386290   0.000000
     8  C    3.634666   4.259068   0.000000
     9  C    3.980428   4.571387   1.522591   0.000000
    10  C    5.334349   6.388918   3.695535   2.388837   0.000000
    11  C    6.123685   7.545816   4.752059   3.694661   1.513981
    12  C    3.691143   1.513771   4.345258   4.607334   6.621612
    13  C    7.512453   8.208017   4.833420   6.062114   7.514709
    14  C    3.271477   4.409873   2.948147   4.291863   6.064719
    15  H    4.399314   6.341326   3.410045   3.574710   3.596970
    16  H    4.511670   6.487125   3.903826   4.657007   5.268825
    17  H    5.772546   7.095267   3.013866   3.370371   3.798262
    18  H    6.419360   8.070006   4.359583   4.928851   5.167573
    19  H    7.318621   8.182126   4.114739   4.901842   5.873937
    20  H    7.778213   8.975689   5.153240   6.065751   6.851094
    21  H    2.164034   4.526706   3.923746   4.239240   4.897890
    22  H    2.176882   4.055126   3.098786   2.844921   3.394501
    23  H    1.098811   2.679003   4.201453   4.834997   6.298883
    24  H    1.097160   2.645823   4.516488   4.571299   5.586321
    25  H    2.625480   1.097902   4.796635   5.364433   7.244419
    26  H    2.645020   1.096876   5.003483   5.048684   6.558491
    27  H    4.629034   5.228912   1.091250   2.180242   4.072876
    28  H    3.487836   3.530457   1.089780   2.158416   4.518608
    29  H    3.419144   3.825517   2.160932   1.096629   2.685352
    30  H    4.954700   5.174321   2.154415   1.096893   2.650910
    31  H    4.987360   5.921526   4.029946   2.624767   1.098115
    32  H    6.130436   6.888428   4.011757   2.649883   1.096926
    33  H    6.675998   8.132664   4.849705   3.999929   2.158333
    34  H    5.657944   7.342736   4.880789   3.994990   2.161631
    35  H    6.947893   8.275966   5.714308   4.520290   2.149061
    36  H    3.993394   2.161495   3.964675   4.516453   6.743867
    37  H    4.516651   2.148129   5.425168   5.668926   7.628550
    38  H    3.994648   2.158318   4.191227   4.112993   5.978722
    39  H    7.052515   7.469088   4.307201   5.596317   7.313459
    40  H    7.518486   8.322771   5.301297   6.633223   8.112834
    41  H    8.571456   9.180511   5.733469   6.872416   8.233750
    42  H    3.443811   4.900501   3.899383   5.124234   6.657578
    43  H    2.985427   3.588579   3.114692   4.427333   6.429197
    44  H    4.313583   5.245683   3.139422   4.606949   6.409793
    45  O    4.429886   5.580662   2.371503   1.417832   1.434243
    46  O    5.726192   6.931685   3.283491   4.386956   5.561697
    47  O    1.413668   1.435532   3.043468   3.388341   5.181389
                   11         12         13         14         15
    11  C    0.000000
    12  C    7.952452   0.000000
    13  C    7.963018   8.173838   0.000000
    14  C    6.708050   5.051727   4.523862   0.000000
    15  H    3.444087   7.063469   5.705937   3.847902   0.000000
    16  H    5.217517   7.300454   4.970330   2.954801   1.778166
    17  H    3.951803   7.350732   4.048385   4.273840   2.415477
    18  H    4.923179   8.537825   4.042723   4.514111   2.557691
    19  H    6.215476   8.131171   2.167972   4.958090   4.681452
    20  H    6.898138   9.158819   2.166047   5.099703   4.748382
    21  H    5.166745   5.711016   7.114732   3.266836   2.818820
    22  H    3.983268   4.975554   7.258627   3.870821   2.811678
    23  H    7.015193   4.041189   7.462854   2.981453   4.854190
    24  H    6.316284   4.042123   8.578442   4.343166   4.989892
    25  H    8.321982   2.167357   8.231901   4.254715   6.717739
    26  H    7.672236   2.166109   9.190005   5.272695   6.765446
    27  H    5.000124   5.181911   3.909421   3.221054   3.596220
    28  H    5.699507   3.414793   5.129776   2.946545   4.371261
    29  H    4.046411   3.940904   6.957161   4.549780   4.084689
    30  H    4.047419   4.900337   6.200659   5.095067   4.455602
    31  H    2.167850   6.206417   8.291064   6.312377   4.142935
    32  H    2.166005   6.889736   7.605207   6.667093   4.440145
    33  H    1.092140   8.485551   7.394917   6.740696   3.348196
    34  H    1.092827   7.950954   8.117664   6.409691   2.964326
    35  H    1.092028   8.643428   8.973850   7.764672   4.497832
    36  H    8.073437   1.092709   7.314181   4.563051   6.936212
    37  H    8.972146   1.092022   9.066730   5.955016   8.127004
    38  H    7.380128   1.092113   8.362201   5.510989   6.962291
    39  H    7.960871   7.302202   1.092753   4.180902   5.835328
    40  H    8.497953   8.425015   1.092023   4.337583   5.879975
    41  H    8.651327   9.044897   1.092101   5.608833   6.613459
    42  H    7.126577   5.762798   5.092054   1.091423   3.998112
    43  H    7.253104   4.171004   5.118144   1.090041   4.690074
    44  H    7.027154   5.663399   3.480781   1.089179   4.154398
    45  O    2.393272   5.859884   6.239313   4.674838   2.630165
    46  O    5.870108   7.210435   2.393836   3.142750   3.315389
    47  O    6.259881   2.393786   7.223792   3.405489   4.911544
                   16         17         18         19         20
    16  H    0.000000
    17  H    3.066068   0.000000
    18  H    2.436064   1.775126   0.000000
    19  H    4.617247   2.449958   2.968781   0.000000
    20  H    4.194530   3.062727   2.429820   1.774418   0.000000
    21  H    2.894396   4.830920   5.022749   6.726372   6.816074
    22  H    3.717002   4.427686   5.196314   6.477381   6.988824
    23  H    4.555348   6.225747   6.653054   7.570755   7.856094
    24  H    5.275252   6.572500   7.219917   8.280893   8.744306
    25  H    6.577479   7.529968   8.324330   8.475792   9.115844
    26  H    7.057683   7.744542   8.721118   9.036422   9.822839
    27  H    3.953042   2.444542   3.851773   3.072769   4.262376
    28  H    4.648277   4.034184   5.304664   4.762003   5.836374
    29  H    5.151650   4.358764   5.800369   5.948946   7.049151
    30  H    5.549914   3.736419   5.448838   4.900868   6.301408
    31  H    5.766468   4.714530   6.036355   6.790849   7.766681
    32  H    6.047887   4.079041   5.614601   5.835436   7.017017
    33  H    5.029284   3.375912   4.254414   5.531071   6.147167
    34  H    4.708242   4.139540   4.816683   6.548192   7.009331
    35  H    6.271459   4.968776   5.920312   7.147511   7.867467
    36  H    7.021837   6.944229   8.110804   7.432266   8.472679
    37  H    8.312785   8.433768   9.605781   9.131864  10.160979
    38  H    7.455854   7.154946   8.497427   8.046529   9.210564
    39  H    5.211013   4.218718   4.587181   2.513307   3.076850
    40  H    4.829822   4.595835   4.251319   3.076239   2.511995
    41  H    5.950817   4.754208   4.730373   2.506648   2.500911
    42  H    2.770108   4.836770   4.719578   5.637332   5.465856
    43  H    3.986477   5.074143   5.523835   5.647110   5.982972
    44  H    3.140083   4.016840   4.172143   4.190416   4.274742
    45  O    4.099240   2.730105   4.162962   4.802003   5.739798
    46  O    2.733206   2.076285   2.078736   2.072977   2.069884
    47  O    5.153480   5.733627   6.691300   7.013292   7.757594
                   21         22         23         24         25
    21  H    0.000000
    22  H    1.763079   0.000000
    23  H    2.443892   3.080018   0.000000
    24  H    2.561306   2.445589   1.770868   0.000000
    25  H    4.697552   4.625917   2.443557   2.963314   0.000000
    26  H    4.754211   4.197916   3.060091   2.429544   1.774737
    27  H    4.675151   4.012017   5.081825   5.554655   5.686483
    28  H    4.329743   3.572443   3.962508   4.396360   4.036688
    29  H    4.064154   2.487054   4.392198   3.828662   4.732178
    30  H    5.335175   3.913543   5.797865   5.524356   6.017060
    31  H    4.809088   3.145638   6.030606   5.049632   6.842004
    32  H    5.879379   4.345753   7.096760   6.428460   7.791508
    33  H    5.575443   4.585174   7.483227   7.006316   8.852107
    34  H    4.448684   3.482409   6.495825   5.777804   8.041558
    35  H    6.062321   4.814110   7.887836   7.019576   9.110845
    36  H    5.846163   5.223451   4.211585   4.587970   2.510664
    37  H    6.620522   5.954513   4.748316   4.728026   2.507984
    38  H    5.876816   4.830199   4.588574   4.253493   3.076079
    39  H    6.967061   6.978683   7.021793   8.130052   7.504896
    40  H    7.042917   7.446303   7.318284   8.591617   8.212540
    41  H    8.175244   8.258382   8.540863   9.634957   9.221732
    42  H    3.064754   4.141834   2.912367   4.409817   4.596013
    43  H    3.674385   4.101319   2.604027   4.055531   3.324206
    44  H    4.193033   4.694377   4.058969   5.396101   5.099767
    45  O    3.990453   2.668223   5.283221   4.924082   6.318492
    46  O    4.952769   5.103175   5.825118   6.713719   7.081452
    47  O    3.319659   2.740813   2.071324   2.078517   2.073419
                   26         27         28         29         30
    26  H    0.000000
    27  H    6.036486   0.000000
    28  H    4.396318   1.775618   0.000000
    29  H    4.141766   3.072137   2.408509   0.000000
    30  H    5.666098   2.442849   2.584175   1.775189   0.000000
    31  H    5.927172   4.635971   4.675094   2.448366   2.967109
    32  H    7.103622   4.218641   4.766284   3.068998   2.437871
    33  H    8.377934   4.860939   5.877451   4.594332   4.258818
    34  H    7.415401   5.243916   5.818747   4.214309   4.591256
    35  H    8.300983   5.979133   6.610698   4.754494   4.735071
    36  H    3.077229   4.638140   2.914815   4.092144   4.739950
    37  H    2.498784   6.229705   4.466404   4.965701   5.901979
    38  H    2.514380   5.040615   3.375551   3.368618   4.262498
    39  H    8.485245   3.419883   4.412126   6.427907   5.671150
    40  H    9.309892   4.513413   5.548131   7.450817   6.912672
    41  H   10.173726   4.740941   6.021229   7.812885   6.883353
    42  H    5.654684   4.194825   3.973310   5.313116   6.012491
    43  H    4.535362   3.551635   2.725651   4.497959   5.167702
    44  H    6.179817   3.034774   3.188530   5.069838   5.255457
    45  O    5.946648   2.758129   3.310800   2.076388   2.079568
    46  O    7.766311   2.584308   3.950950   5.256231   4.835940
    47  O    2.070481   4.072788   2.561070   2.752656   4.169503
                   31         32         33         34         35
    31  H    0.000000
    32  H    1.774086   0.000000
    33  H    3.076418   2.514311   0.000000
    34  H    2.511792   3.077211   1.776449   0.000000
    35  H    2.508855   2.499306   1.768500   1.767420   0.000000
    36  H    6.500542   6.950681   8.476002   8.122997   8.842097
    37  H    7.150398   7.868277   9.538390   8.964818   9.621377
    38  H    5.508369   6.147461   7.957234   7.482688   7.983903
    39  H    8.004230   7.360120   7.504762   8.156051   8.966491
    40  H    8.840325   8.323064   7.963860   8.523008   9.544019
    41  H    9.065562   8.217216   8.000579   8.887956   9.618128
    42  H    6.872646   7.369377   7.168334   6.676515   8.179921
    43  H    6.539693   6.981938   7.393057   6.995236   8.268787
    44  H    6.808607   6.893431   6.900700   6.836146   8.104701
    45  O    2.072996   2.069748   2.654479   2.670357   3.344422
    46  O    6.310725   5.895517   5.396564   5.867427   6.932126
    47  O    4.836438   5.767893   6.791018   6.032605   7.063782
                   36         37         38         39         40
    36  H    0.000000
    37  H    1.767191   0.000000
    38  H    1.776749   1.768546   0.000000
    39  H    6.392008   8.154920   7.504110   0.000000
    40  H    7.570863   9.286692   8.734577   1.776229   0.000000
    41  H    8.147529   9.912511   9.195720   1.768228   1.768864
    42  H    5.374744   6.604590   6.291879   4.916520   4.707784
    43  H    3.651134   4.998422   4.769285   4.572714   4.972272
    44  H    5.007543   6.559565   6.090049   3.167065   3.267712
    45  O    5.823758   6.927038   5.395282   6.013732   6.779233
    46  O    6.594982   8.227400   7.307046   2.667418   2.657071
    47  O    2.670999   3.344713   2.654978   6.593529   7.371677
                   41         42         43         44         45
    41  H    0.000000
    42  H    6.174372   0.000000
    43  H    6.165090   1.783607   0.000000
    44  H    4.559901   1.776808   1.792472   0.000000
    45  O    7.035518   5.317175   5.086999   4.978242   0.000000
    46  O    3.344771   3.654388   4.029109   2.467308   4.246094
    47  O    8.225716   3.954540   2.847828   4.279054   4.261420
                   46         47
    46  O    0.000000
    47  O    5.701563   0.000000
 Symmetry turned off by external request.
 Stoichiometry    C13H30O3P
 Rotational constants (GHZ):      0.4143796      0.2771580      0.2070839
 Standard basis: 6-311+G(d,p) (5D, 7F)
   562 basis functions,   866 primitive gaussians,   579 cartesian basis functions
    73 alpha electrons       73 beta electrons
       nuclear repulsion energy      1567.7447992830 Hartrees.
 NAtoms=   47 NActive=   47 NUniq=   47 SFac= 1.00D+00 NAtFMM=   60 NAOKFM=F Big=F
 Integral buffers will be    131072 words long.
 Raffenetti 2 integral format.
 Two-electron integral symmetry is turned off.
 Nuclear repulsion after empirical dispersion term =     1567.6601666489 Hartrees.
 One-electron integrals computed using PRISM.
 NBasis=   562 RedAO= T EigKep=  4.62D-06  NBF=   562
 NBsUse=   562 1.00D-06 EigRej= -1.00D+00 NBFU=   562
 Initial guess from the checkpoint file:  "P2O231.chk"
 B after Tr=     0.000000    0.000000    0.000000
         Rot=    1.000000    0.000000    0.000000    0.000000 Ang=   0.00 deg.
 Keep R1 ints in memory in canonical form, NReq=12612785049.
 Requested convergence on RMS density matrix=1.00D-10 within 128 cycles.
 Requested convergence on MAX density matrix=1.00D-08.
 Requested convergence on             energy=1.00D-08.
 No special actions if energy rises.
 SCF Done:  E(RB3LYP) =  -1080.59323953     A.U. after    7 cycles
            NFock=  7  Conv=0.30D-10     -V/T= 2.0036
 DoSCS=F DFT=T ScalE2(SS,OS)=  1.000000  1.000000
 Range of M.O.s used for correlation:     1   562
 NBasis=   562 NAE=    73 NBE=    73 NFC=     0 NFV=     0
 NROrb=    562 NOA=    73 NOB=    73 NVA=   489 NVB=   489

 **** Warning!!: The largest alpha MO coefficient is  0.91464295D+02

 Symmetrizing basis deriv contribution to polar:
 IMax=3 JMax=2 DiffMx= 0.00D+00
 G2DrvN: will do    48 centers at a time, making    1 passes.
 Calling FoFCou, ICntrl=  3107 FMM=F I1Cent=   0 AccDes= 0.00D+00.
 End of G2Drv F.D. properties file   721 does not exist.
 End of G2Drv F.D. properties file   722 does not exist.
 End of G2Drv F.D. properties file   788 does not exist.
          IDoAtm=11111111111111111111111111111111111111111111111
          Differentiating once with respect to electric field.
                with respect to dipole field.
          Differentiating once with respect to nuclear coordinates.
 Keep R1 ints in memory in canonical form, NReq=12611749188.
 CalDSu:  requested number of processors reduced to:  33 ShMem   1 Linda.
          There are   144 degrees of freedom in the 1st order CPHF.  IDoFFX=6 NUNeed=     3.
    141 vectors produced by pass  0 Test12= 3.57D-14 1.00D-09 XBig12= 1.18D+02 1.02D+00.
 AX will form   141 AO Fock derivatives at one time.
 CalDSu:  requested number of processors reduced to:  34 ShMem   1 Linda.
    141 vectors produced by pass  1 Test12= 3.57D-14 1.00D-09 XBig12= 1.02D+01 2.62D-01.
 CalDSu:  requested number of processors reduced to:  34 ShMem   1 Linda.
    141 vectors produced by pass  2 Test12= 3.57D-14 1.00D-09 XBig12= 7.20D-02 1.71D-02.
 CalDSu:  requested number of processors reduced to:  34 ShMem   1 Linda.
    141 vectors produced by pass  3 Test12= 3.57D-14 1.00D-09 XBig12= 1.67D-04 7.23D-04.
 CalDSu:  requested number of processors reduced to:  34 ShMem   1 Linda.
    141 vectors produced by pass  4 Test12= 3.57D-14 1.00D-09 XBig12= 2.57D-07 2.73D-05.
 CalDSu:  requested number of processors reduced to:  34 ShMem   1 Linda.
     94 vectors produced by pass  5 Test12= 3.57D-14 1.00D-09 XBig12= 2.67D-10 9.77D-07.
      7 vectors produced by pass  6 Test12= 3.57D-14 1.00D-09 XBig12= 2.28D-13 3.33D-08.
      3 vectors produced by pass  7 Test12= 3.57D-14 1.00D-09 XBig12= 7.83D-16 1.70D-09.
 InvSVY:  IOpt=1 It=  1 EMax= 1.07D-14
 Solved reduced A of dimension   809 with   144 vectors.
 Isotropic polarizability for W=    0.000000      185.00 Bohr**3.
 End of Minotr F.D. properties file   721 does not exist.
 End of Minotr F.D. properties file   722 does not exist.
 End of Minotr F.D. properties file   788 does not exist.

 **********************************************************************

            Population analysis using the SCF density.

 **********************************************************************

 Alpha  occ. eigenvalues --  -77.25597 -19.25582 -19.25325 -19.24979 -10.35806
 Alpha  occ. eigenvalues --  -10.35106 -10.34944 -10.33165 -10.33101 -10.33023
 Alpha  occ. eigenvalues --  -10.32656 -10.32549 -10.32346 -10.31678 -10.26654
 Alpha  occ. eigenvalues --  -10.26599 -10.26124  -6.75077  -4.91127  -4.91100
 Alpha  occ. eigenvalues --   -4.91094  -1.16800  -1.16445  -1.16131  -0.96678
 Alpha  occ. eigenvalues --   -0.91542  -0.91103  -0.88283  -0.85769  -0.85259
 Alpha  occ. eigenvalues --   -0.85144  -0.78809  -0.76236  -0.75112  -0.72930
 Alpha  occ. eigenvalues --   -0.72750  -0.72350  -0.68249  -0.63809  -0.63707
 Alpha  occ. eigenvalues --   -0.62778  -0.62016  -0.61736  -0.60716  -0.59464
 Alpha  occ. eigenvalues --   -0.58317  -0.58226  -0.57402  -0.56933  -0.56052
 Alpha  occ. eigenvalues --   -0.55440  -0.55200  -0.53923  -0.53157  -0.52443
 Alpha  occ. eigenvalues --   -0.50906  -0.50373  -0.49906  -0.49672  -0.48979
 Alpha  occ. eigenvalues --   -0.48725  -0.48267  -0.47979  -0.47618  -0.46800
 Alpha  occ. eigenvalues --   -0.46488  -0.46170  -0.45326  -0.44912  -0.44429
 Alpha  occ. eigenvalues --   -0.39485  -0.39072  -0.38634
 Alpha virt. eigenvalues --   -0.11824  -0.10515  -0.10295  -0.09849  -0.09459
 Alpha virt. eigenvalues --   -0.08994  -0.08343  -0.07523  -0.07384  -0.06863
 Alpha virt. eigenvalues --   -0.06446  -0.05856  -0.05706  -0.05605  -0.05156
 Alpha virt. eigenvalues --   -0.04953  -0.04674  -0.04242  -0.03736  -0.03700
 Alpha virt. eigenvalues --   -0.03009  -0.02904  -0.02642  -0.02083  -0.01824
 Alpha virt. eigenvalues --   -0.01529  -0.01475  -0.01377  -0.01160  -0.00710
 Alpha virt. eigenvalues --   -0.00366  -0.00093  -0.00026   0.00240   0.00836
 Alpha virt. eigenvalues --    0.00995   0.01397   0.01714   0.01770   0.02403
 Alpha virt. eigenvalues --    0.02928   0.03208   0.03657   0.03877   0.04189
 Alpha virt. eigenvalues --    0.04622   0.04776   0.05081   0.05471   0.05952
 Alpha virt. eigenvalues --    0.06323   0.06664   0.07044   0.07544   0.07744
 Alpha virt. eigenvalues --    0.07780   0.08137   0.08206   0.08563   0.08906
 Alpha virt. eigenvalues --    0.09077   0.09733   0.09927   0.10369   0.10577
 Alpha virt. eigenvalues --    0.10913   0.11044   0.11299   0.11469   0.11582
 Alpha virt. eigenvalues --    0.12066   0.12269   0.12324   0.12869   0.12920
 Alpha virt. eigenvalues --    0.13236   0.13420   0.13521   0.13822   0.14655
 Alpha virt. eigenvalues --    0.14767   0.15119   0.15264   0.15714   0.16155
 Alpha virt. eigenvalues --    0.16419   0.16724   0.16947   0.17156   0.17667
 Alpha virt. eigenvalues --    0.18195   0.18472   0.18740   0.19141   0.19578
 Alpha virt. eigenvalues --    0.19947   0.20287   0.21040   0.21754   0.21946
 Alpha virt. eigenvalues --    0.22696   0.22849   0.23277   0.23544   0.24089
 Alpha virt. eigenvalues --    0.24770   0.25561   0.26711   0.27091   0.27778
 Alpha virt. eigenvalues --    0.28337   0.28811   0.29510   0.29746   0.30323
 Alpha virt. eigenvalues --    0.30659   0.31478   0.31991   0.32200   0.32526
 Alpha virt. eigenvalues --    0.33132   0.35900   0.36584   0.37464   0.37760
 Alpha virt. eigenvalues --    0.37964   0.38943   0.39714   0.40591   0.41487
 Alpha virt. eigenvalues --    0.42800   0.43493   0.44026   0.44985   0.45187
 Alpha virt. eigenvalues --    0.45887   0.46292   0.46717   0.46947   0.47194
 Alpha virt. eigenvalues --    0.47505   0.47917   0.48374   0.48757   0.50164
 Alpha virt. eigenvalues --    0.50789   0.51064   0.51665   0.52150   0.52434
 Alpha virt. eigenvalues --    0.53634   0.54198   0.54514   0.54938   0.55352
 Alpha virt. eigenvalues --    0.55883   0.56250   0.56693   0.57225   0.57653
 Alpha virt. eigenvalues --    0.58067   0.58137   0.58281   0.58866   0.59264
 Alpha virt. eigenvalues --    0.59693   0.60114   0.60286   0.61112   0.61339
 Alpha virt. eigenvalues --    0.61633   0.62061   0.62384   0.62897   0.63676
 Alpha virt. eigenvalues --    0.64256   0.65049   0.65716   0.66412   0.66906
 Alpha virt. eigenvalues --    0.67964   0.68794   0.69489   0.70114   0.70397
 Alpha virt. eigenvalues --    0.72769   0.73264   0.73869   0.75568   0.76013
 Alpha virt. eigenvalues --    0.76720   0.77125   0.79727   0.80069   0.82451
 Alpha virt. eigenvalues --    0.85301   0.85878   0.86165   0.88175   0.89886
 Alpha virt. eigenvalues --    0.90337   0.91666   0.92216   0.92845   0.93297
 Alpha virt. eigenvalues --    0.94015   0.95821   0.96561   0.97361   0.97945
 Alpha virt. eigenvalues --    0.98775   0.99308   1.01012   1.02597   1.03793
 Alpha virt. eigenvalues --    1.06053   1.07016   1.09244   1.10037   1.11932
 Alpha virt. eigenvalues --    1.12363   1.13880   1.14287   1.15198   1.15888
 Alpha virt. eigenvalues --    1.18239   1.20141   1.21301   1.24147   1.24614
 Alpha virt. eigenvalues --    1.25941   1.27570   1.30841   1.33501   1.34697
 Alpha virt. eigenvalues --    1.35671   1.36509   1.36617   1.36736   1.37024
 Alpha virt. eigenvalues --    1.39720   1.40582   1.41255   1.41861   1.42192
 Alpha virt. eigenvalues --    1.42791   1.43430   1.43993   1.44755   1.45246
 Alpha virt. eigenvalues --    1.45694   1.46790   1.47063   1.47481   1.47656
 Alpha virt. eigenvalues --    1.47999   1.48906   1.49233   1.49385   1.50210
 Alpha virt. eigenvalues --    1.50569   1.51419   1.51541   1.51770   1.52358
 Alpha virt. eigenvalues --    1.52685   1.53154   1.53478   1.54077   1.54556
 Alpha virt. eigenvalues --    1.55032   1.55604   1.55938   1.56714   1.56922
 Alpha virt. eigenvalues --    1.57865   1.58052   1.58755   1.59634   1.60693
 Alpha virt. eigenvalues --    1.61137   1.61892   1.62375   1.63063   1.63571
 Alpha virt. eigenvalues --    1.63956   1.65302   1.66024   1.66687   1.67173
 Alpha virt. eigenvalues --    1.68640   1.69700   1.70032   1.70671   1.71244
 Alpha virt. eigenvalues --    1.71799   1.72244   1.74709   1.74843   1.76482
 Alpha virt. eigenvalues --    1.78158   1.79675   1.81774   1.82027   1.83373
 Alpha virt. eigenvalues --    1.84718   1.86385   1.87857   1.88954   1.89788
 Alpha virt. eigenvalues --    1.90116   1.91101   1.91470   1.91919   1.92987
 Alpha virt. eigenvalues --    1.95304   1.96058   1.97732   1.99007   2.01073
 Alpha virt. eigenvalues --    2.01164   2.01426   2.03531   2.04276   2.04768
 Alpha virt. eigenvalues --    2.06652   2.08049   2.09194   2.09837   2.10161
 Alpha virt. eigenvalues --    2.10368   2.11448   2.12048   2.12811   2.13766
 Alpha virt. eigenvalues --    2.14412   2.16096   2.16775   2.17727   2.20460
 Alpha virt. eigenvalues --    2.21570   2.21619   2.24143   2.24715   2.25389
 Alpha virt. eigenvalues --    2.34123   2.34489   2.35149   2.35943   2.36173
 Alpha virt. eigenvalues --    2.36308   2.36840   2.37417   2.38336   2.38364
 Alpha virt. eigenvalues --    2.38982   2.39790   2.40368   2.40608   2.40875
 Alpha virt. eigenvalues --    2.42261   2.42713   2.43304   2.44030   2.44497
 Alpha virt. eigenvalues --    2.45622   2.46631   2.47656   2.48116   2.48660
 Alpha virt. eigenvalues --    2.48792   2.49056   2.49502   2.50550   2.51301
 Alpha virt. eigenvalues --    2.51814   2.52845   2.53721   2.54633   2.54992
 Alpha virt. eigenvalues --    2.56038   2.56455   2.57406   2.58828   2.59694
 Alpha virt. eigenvalues --    2.60166   2.62023   2.63891   2.65655   2.66148
 Alpha virt. eigenvalues --    2.67600   2.69148   2.72739   2.73098   2.73566
 Alpha virt. eigenvalues --    2.74451   2.76479   2.77101   2.77845   2.78308
 Alpha virt. eigenvalues --    2.79221   2.80393   2.81386   2.82181   2.83280
 Alpha virt. eigenvalues --    2.84181   2.84647   2.87238   2.89001   2.91403
 Alpha virt. eigenvalues --    2.93904   2.98634   3.01759   3.03880   3.04843
 Alpha virt. eigenvalues --    3.07433   3.08695   3.10071   3.10490   3.10913
 Alpha virt. eigenvalues --    3.11298   3.17982   3.18481   3.19351   3.20800
 Alpha virt. eigenvalues --    3.21325   3.22632   3.24731   3.25903   3.28112
 Alpha virt. eigenvalues --    3.59706   3.61173   3.61731   3.63136   3.65874
 Alpha virt. eigenvalues --    3.68691   3.69584   3.70312   3.71054   3.71158
 Alpha virt. eigenvalues --    3.71487   3.71562   3.72156   3.72234   3.72450
 Alpha virt. eigenvalues --    3.73263   3.73828   3.88488   3.89293   3.91075
 Alpha virt. eigenvalues --    4.01185   4.01856   4.02507   4.06470   4.07624
 Alpha virt. eigenvalues --    4.07974   4.17411   4.17740   4.18002   4.98148
 Alpha virt. eigenvalues --    4.99672   5.00259   5.29656   5.31879   5.33399
 Alpha virt. eigenvalues --    5.57529   5.58188   5.58916   7.11040  13.94986
 Alpha virt. eigenvalues --   13.99966  14.00278  23.72383  23.73631  23.73968
 Alpha virt. eigenvalues --   23.74830  23.75420  23.75954  23.77098  23.77331
 Alpha virt. eigenvalues --   23.81001  23.85112  23.87857  23.88080  23.88674
 Alpha virt. eigenvalues --   49.82460  49.83641  49.84836 163.27768
          Condensed to atoms (all electrons):
               1          2          3          4          5          6
     1  P   17.754063   0.073683  -0.907645  -0.021165  -0.927429  -0.471199
     2  C    0.073683   8.346471  -1.289172   0.014888  -0.583086   0.099128
     3  C   -0.907645  -1.289172   7.214245  -0.155645   0.308380  -0.028413
     4  C   -0.021165   0.014888  -0.155645   5.260778  -0.000328   0.001884
     5  C   -0.927429  -0.583086   0.308380  -0.000328   8.420096  -1.082951
     6  C   -0.471199   0.099128  -0.028413   0.001884  -1.082951   6.957621
     7  C    0.018795   0.003336   0.003766  -0.000082   0.003853  -0.181009
     8  C   -0.354554  -0.255583   0.019268  -0.030760   0.048654   0.061511
     9  C   -1.597667   0.296914   0.072640   0.011976  -0.085249   0.260541
    10  C    0.088577   0.036355  -0.029988  -0.000378  -0.045989   0.000601
    11  C   -0.105611  -0.026864   0.028262   0.000682   0.026454   0.009743
    12  C   -0.038613  -0.005106   0.000793   0.000013  -0.078154   0.120365
    13  C   -0.008242  -0.099975   0.104543   0.074670   0.004367  -0.000363
    14  C   -0.581876  -0.398565   0.251890  -0.007210   0.184925  -0.102920
    15  H    0.031285   0.328997  -0.039813   0.001954  -0.000125   0.004257
    16  H   -0.000792   0.323721   0.006327  -0.005438  -0.018283   0.010538
    17  H   -0.033437  -0.084421   0.474807  -0.006755  -0.002480   0.002044
    18  H    0.060706  -0.002228   0.327684  -0.005249  -0.000851  -0.000204
    19  H   -0.002285  -0.003546  -0.011855   0.421458  -0.000130   0.000061
    20  H    0.009390   0.000664  -0.012128   0.439914   0.000072  -0.000040
    21  H   -0.045575   0.017859   0.008473  -0.000075   0.312010   0.001983
    22  H    0.033340  -0.016556   0.001567   0.000070   0.412734  -0.064651
    23  H   -0.023130  -0.011005   0.000778  -0.000056   0.032672   0.368072
    24  H    0.021168   0.005241   0.000331   0.000015  -0.060810   0.405335
    25  H   -0.005384  -0.000212  -0.000035  -0.000015   0.015881  -0.022087
    26  H    0.005655   0.000197   0.000006   0.000003  -0.009515  -0.001302
    27  H   -0.024201  -0.005848   0.006278   0.007869   0.009161   0.000683
    28  H    0.068396   0.010091   0.003996   0.000632  -0.037767   0.013123
    29  H   -0.007351  -0.003440  -0.000526  -0.000093  -0.002885   0.004467
    30  H    0.065624  -0.009025   0.004003   0.000072  -0.001070  -0.002576
    31  H    0.000676   0.000652   0.000486  -0.000031   0.000494  -0.001659
    32  H    0.013295  -0.001632  -0.001158  -0.000002  -0.001598  -0.000060
    33  H   -0.012705  -0.005745   0.011147   0.000288   0.000759   0.000157
    34  H    0.027720  -0.001526  -0.010311  -0.000086  -0.005311   0.000594
    35  H    0.001556   0.000089   0.000272  -0.000006  -0.000220  -0.000262
    36  H    0.020863  -0.000187   0.000119   0.000018   0.002580  -0.007256
    37  H   -0.000696   0.000005  -0.000003   0.000000  -0.000608   0.002090
    38  H   -0.008908   0.000165  -0.000016  -0.000009   0.005023  -0.004672
    39  H    0.008538   0.005804  -0.006042  -0.017341   0.000188  -0.000051
    40  H   -0.010323   0.004485  -0.004304  -0.030989  -0.000112   0.000032
    41  H    0.003066  -0.001772   0.001273  -0.054965  -0.000011   0.000002
    42  H    0.018604  -0.000324  -0.019597  -0.001118  -0.008618  -0.001518
    43  H    0.090525   0.038320  -0.011409   0.001327  -0.053022   0.010957
    44  H    0.003632  -0.055102   0.029453  -0.008649   0.026977  -0.000747
    45  O    0.333707  -0.089888   0.007429  -0.000800  -0.092861   0.008716
    46  O    0.188349  -0.216031   0.053854   0.100244  -0.001108   0.002356
    47  O    0.170375   0.000922   0.010976   0.000236  -0.224770   0.052911
               7          8          9         10         11         12
     1  P    0.018795  -0.354554  -1.597667   0.088577  -0.105611  -0.038613
     2  C    0.003336  -0.255583   0.296914   0.036355  -0.026864  -0.005106
     3  C    0.003766   0.019268   0.072640  -0.029988   0.028262   0.000793
     4  C   -0.000082  -0.030760   0.011976  -0.000378   0.000682   0.000013
     5  C    0.003853   0.048654  -0.085249  -0.045989   0.026454  -0.078154
     6  C   -0.181009   0.061511   0.260541   0.000601   0.009743   0.120365
     7  C    5.190936   0.017304  -0.009669  -0.000049   0.000277   0.110583
     8  C    0.017304   8.100769  -1.261989  -0.026169  -0.086846  -0.027455
     9  C   -0.009669  -1.261989   7.849085  -0.195894   0.164210   0.038895
    10  C   -0.000049  -0.026169  -0.195894   5.236636   0.094086   0.000342
    11  C    0.000277  -0.086846   0.164210   0.094086   5.406050   0.000428
    12  C    0.110583  -0.027455   0.038895   0.000342   0.000428   5.387604
    13  C    0.000111   0.004287   0.001060   0.000168   0.000050   0.000024
    14  C   -0.007204  -0.139740   0.233303  -0.001626   0.003950   0.000768
    15  H    0.000019  -0.019070   0.015104  -0.003461   0.001008   0.000098
    16  H    0.000111   0.009067  -0.002014  -0.000580   0.000667   0.000037
    17  H    0.000026  -0.002400   0.015306   0.006604  -0.001775   0.000003
    18  H   -0.000016  -0.005551  -0.001531  -0.000855   0.000344   0.000004
    19  H   -0.000002   0.003883  -0.001208  -0.000069  -0.000258   0.000002
    20  H   -0.000001  -0.002612  -0.000138  -0.000038   0.000074   0.000000
    21  H    0.001865   0.009181   0.007659   0.000164   0.000540  -0.000484
    22  H   -0.004927  -0.007292  -0.012534   0.002538  -0.000335   0.001317
    23  H   -0.015702   0.006295  -0.009970  -0.000189   0.000049   0.001438
    24  H    0.003071  -0.011042   0.010293   0.000158  -0.000054  -0.000054
    25  H    0.423262   0.003491  -0.001541  -0.000000   0.000002  -0.042262
    26  H    0.440882  -0.001751   0.000457  -0.000089  -0.000025  -0.044207
    27  H   -0.000515   0.340695   0.012423  -0.005833   0.002170   0.001096
    28  H   -0.003704   0.332129  -0.026258   0.001216  -0.000551   0.001758
    29  H    0.003424  -0.064599   0.452393  -0.009866   0.001698   0.000354
    30  H   -0.000089   0.008559   0.308419  -0.002567  -0.001031  -0.000742
    31  H    0.000073   0.002352  -0.012757   0.422108  -0.037260  -0.000297
    32  H   -0.000051   0.003486  -0.017793   0.441775  -0.047812   0.000060
    33  H   -0.000004   0.004983  -0.004525  -0.027729   0.410792  -0.000002
    34  H   -0.000007   0.004826  -0.009766  -0.025595   0.392553   0.000011
    35  H    0.000001  -0.001352   0.001544  -0.052040   0.421698  -0.000001
    36  H   -0.024179   0.000603  -0.010993  -0.000190  -0.000013   0.392270
    37  H   -0.046822   0.000616   0.000031  -0.000002  -0.000000   0.416694
    38  H   -0.031228  -0.007381   0.011354   0.000395   0.000022   0.411753
    39  H    0.000005  -0.003660   0.002652   0.000032   0.000014  -0.000014
    40  H   -0.000003   0.001241  -0.000046  -0.000010  -0.000002   0.000002
    41  H   -0.000000  -0.000369  -0.000340   0.000000  -0.000001   0.000000
    42  H   -0.000110   0.030707  -0.003668  -0.000002   0.000030  -0.000101
    43  H    0.002355  -0.046166   0.001463   0.000164  -0.000035  -0.002835
    44  H   -0.000050  -0.002891  -0.008210  -0.000019   0.000002   0.000135
    45  O   -0.000487  -0.210960  -0.016981   0.118958  -0.132169   0.000018
    46  O   -0.000379  -0.075191   0.005033  -0.000511  -0.000085   0.000245
    47  O    0.122997  -0.090803   0.037721  -0.001878   0.001186  -0.126118
              13         14         15         16         17         18
     1  P   -0.008242  -0.581876   0.031285  -0.000792  -0.033437   0.060706
     2  C   -0.099975  -0.398565   0.328997   0.323721  -0.084421  -0.002228
     3  C    0.104543   0.251890  -0.039813   0.006327   0.474807   0.327684
     4  C    0.074670  -0.007210   0.001954  -0.005438  -0.006755  -0.005249
     5  C    0.004367   0.184925  -0.000125  -0.018283  -0.002480  -0.000851
     6  C   -0.000363  -0.102920   0.004257   0.010538   0.002044  -0.000204
     7  C    0.000111  -0.007204   0.000019   0.000111   0.000026  -0.000016
     8  C    0.004287  -0.139740  -0.019070   0.009067  -0.002400  -0.005551
     9  C    0.001060   0.233303   0.015104  -0.002014   0.015306  -0.001531
    10  C    0.000168  -0.001626  -0.003461  -0.000580   0.006604  -0.000855
    11  C    0.000050   0.003950   0.001008   0.000667  -0.001775   0.000344
    12  C    0.000024   0.000768   0.000098   0.000037   0.000003   0.000004
    13  C    5.415213   0.017488  -0.000347   0.002732   0.001929   0.003470
    14  C    0.017488   6.477810   0.016002  -0.002739  -0.003653  -0.001694
    15  H   -0.000347   0.016002   0.429534  -0.008311   0.000468  -0.003499
    16  H    0.002732  -0.002739  -0.008311   0.451903   0.005416  -0.011926
    17  H    0.001929  -0.003653   0.000468   0.005416   0.515635  -0.045236
    18  H    0.003470  -0.001694  -0.003499  -0.011926  -0.045236   0.552012
    19  H   -0.034719  -0.000132   0.000146   0.000068   0.013687  -0.004293
    20  H   -0.044691  -0.000589  -0.000009  -0.000211  -0.004400   0.013330
    21  H    0.000069  -0.003086  -0.000474   0.001975   0.000049  -0.000041
    22  H    0.000000   0.011730   0.001096   0.000175   0.000039  -0.000011
    23  H    0.000035   0.016514   0.000032   0.000054  -0.000003   0.000000
    24  H   -0.000006  -0.002650  -0.000017  -0.000009   0.000001  -0.000000
    25  H    0.000008   0.001105  -0.000001  -0.000001  -0.000000  -0.000000
    26  H   -0.000001  -0.000577   0.000000  -0.000000   0.000000   0.000000
    27  H   -0.003685   0.000436   0.000181  -0.000184  -0.000151  -0.000124
    28  H    0.000209  -0.016179  -0.000028  -0.000087   0.000059   0.000026
    29  H    0.000026  -0.002830   0.000069  -0.000011  -0.000038   0.000001
    30  H   -0.000001   0.000094  -0.000030   0.000048   0.000047  -0.000009
    31  H    0.000005  -0.000322  -0.000015   0.000003  -0.000053  -0.000001
    32  H   -0.000019   0.000067  -0.000062   0.000008   0.000026  -0.000005
    33  H    0.000027  -0.000035   0.000171   0.000000   0.000091  -0.000043
    34  H   -0.000011  -0.000089   0.000538   0.000007   0.000069   0.000032
    35  H    0.000000   0.000001  -0.000026  -0.000000  -0.000029  -0.000001
    36  H   -0.000015  -0.002515   0.000000   0.000000  -0.000000   0.000000
    37  H   -0.000000   0.000202  -0.000000  -0.000000   0.000000   0.000000
    38  H    0.000004   0.000552  -0.000000  -0.000000  -0.000000  -0.000000
    39  H    0.386620  -0.003655  -0.000001  -0.000005  -0.000074   0.000043
    40  H    0.415662   0.003140   0.000005  -0.000026   0.000119  -0.000097
    41  H    0.423921  -0.000572  -0.000000   0.000003   0.000020   0.000017
    42  H   -0.000120   0.332898  -0.000100  -0.000361  -0.000018   0.000060
    43  H   -0.001287   0.319988  -0.000195  -0.000346   0.000020   0.000023
    44  H    0.009129   0.362122  -0.000039   0.000829   0.000175  -0.000201
    45  O    0.000697  -0.014626  -0.010965   0.005458   0.007960  -0.001460
    46  O   -0.109381   0.015257   0.015486  -0.000908  -0.036599  -0.048681
    47  O   -0.000004  -0.051386  -0.000254  -0.000074   0.000028  -0.000002
              19         20         21         22         23         24
     1  P   -0.002285   0.009390  -0.045575   0.033340  -0.023130   0.021168
     2  C   -0.003546   0.000664   0.017859  -0.016556  -0.011005   0.005241
     3  C   -0.011855  -0.012128   0.008473   0.001567   0.000778   0.000331
     4  C    0.421458   0.439914  -0.000075   0.000070  -0.000056   0.000015
     5  C   -0.000130   0.000072   0.312010   0.412734   0.032672  -0.060810
     6  C    0.000061  -0.000040   0.001983  -0.064651   0.368072   0.405335
     7  C   -0.000002  -0.000001   0.001865  -0.004927  -0.015702   0.003071
     8  C    0.003883  -0.002612   0.009181  -0.007292   0.006295  -0.011042
     9  C   -0.001208  -0.000138   0.007659  -0.012534  -0.009970   0.010293
    10  C   -0.000069  -0.000038   0.000164   0.002538  -0.000189   0.000158
    11  C   -0.000258   0.000074   0.000540  -0.000335   0.000049  -0.000054
    12  C    0.000002   0.000000  -0.000484   0.001317   0.001438  -0.000054
    13  C   -0.034719  -0.044691   0.000069   0.000000   0.000035  -0.000006
    14  C   -0.000132  -0.000589  -0.003086   0.011730   0.016514  -0.002650
    15  H    0.000146  -0.000009  -0.000474   0.001096   0.000032  -0.000017
    16  H    0.000068  -0.000211   0.001975   0.000175   0.000054  -0.000009
    17  H    0.013687  -0.004400   0.000049   0.000039  -0.000003   0.000001
    18  H   -0.004293   0.013330  -0.000041  -0.000011   0.000000  -0.000000
    19  H    0.584304  -0.050691   0.000000  -0.000000   0.000000  -0.000000
    20  H   -0.050691   0.557053  -0.000000  -0.000000   0.000000   0.000000
    21  H    0.000000  -0.000000   0.453614  -0.009372  -0.004201  -0.002182
    22  H   -0.000000  -0.000000  -0.009372   0.404836   0.005042  -0.010688
    23  H    0.000000   0.000000  -0.004201   0.005042   0.561430  -0.051744
    24  H   -0.000000   0.000000  -0.002182  -0.010688  -0.051744   0.546365
    25  H    0.000000   0.000000   0.000083   0.000026   0.014527  -0.004327
    26  H   -0.000000  -0.000000   0.000021  -0.000101  -0.004600   0.012957
    27  H    0.000002  -0.000073  -0.000087  -0.000053  -0.000025   0.000045
    28  H   -0.000038   0.000004  -0.000051   0.000338  -0.000042  -0.000019
    29  H   -0.000000   0.000000  -0.000015   0.000477   0.000007   0.000002
    30  H   -0.000025   0.000001   0.000023  -0.000190   0.000005  -0.000015
    31  H    0.000000  -0.000000  -0.000009   0.000778   0.000001  -0.000021
    32  H    0.000001  -0.000000   0.000004  -0.000119   0.000000  -0.000000
    33  H    0.000003  -0.000001  -0.000001   0.000064  -0.000000  -0.000000
    34  H    0.000000  -0.000000  -0.000015  -0.000110  -0.000000   0.000003
    35  H    0.000000  -0.000000   0.000001  -0.000031   0.000000   0.000000
    36  H   -0.000000  -0.000000   0.000002   0.000006  -0.000045   0.000060
    37  H   -0.000000   0.000000  -0.000001   0.000001   0.000020   0.000021
    38  H    0.000000   0.000000   0.000005  -0.000028   0.000091  -0.000059
    39  H   -0.009177   0.007710  -0.000000   0.000000  -0.000000   0.000000
    40  H    0.007589  -0.008029  -0.000000  -0.000000  -0.000000   0.000000
    41  H   -0.003071  -0.003351  -0.000000  -0.000000  -0.000000   0.000000
    42  H   -0.000002   0.000003   0.000126  -0.000238  -0.000277  -0.000033
    43  H    0.000007   0.000001   0.000143   0.000033  -0.001492   0.000039
    44  H    0.000067  -0.000109  -0.000207  -0.000156  -0.000078   0.000015
    45  O    0.000024  -0.000074   0.001813  -0.000991  -0.000081   0.000224
    46  O   -0.050307  -0.055930  -0.000148   0.000024   0.000016   0.000004
    47  O   -0.000001   0.000000   0.017635  -0.004173  -0.052340  -0.045105
              25         26         27         28         29         30
     1  P   -0.005384   0.005655  -0.024201   0.068396  -0.007351   0.065624
     2  C   -0.000212   0.000197  -0.005848   0.010091  -0.003440  -0.009025
     3  C   -0.000035   0.000006   0.006278   0.003996  -0.000526   0.004003
     4  C   -0.000015   0.000003   0.007869   0.000632  -0.000093   0.000072
     5  C    0.015881  -0.009515   0.009161  -0.037767  -0.002885  -0.001070
     6  C   -0.022087  -0.001302   0.000683   0.013123   0.004467  -0.002576
     7  C    0.423262   0.440882  -0.000515  -0.003704   0.003424  -0.000089
     8  C    0.003491  -0.001751   0.340695   0.332129  -0.064599   0.008559
     9  C   -0.001541   0.000457   0.012423  -0.026258   0.452393   0.308419
    10  C   -0.000000  -0.000089  -0.005833   0.001216  -0.009866  -0.002567
    11  C    0.000002  -0.000025   0.002170  -0.000551   0.001698  -0.001031
    12  C   -0.042262  -0.044207   0.001096   0.001758   0.000354  -0.000742
    13  C    0.000008  -0.000001  -0.003685   0.000209   0.000026  -0.000001
    14  C    0.001105  -0.000577   0.000436  -0.016179  -0.002830   0.000094
    15  H   -0.000001   0.000000   0.000181  -0.000028   0.000069  -0.000030
    16  H   -0.000001  -0.000000  -0.000184  -0.000087  -0.000011   0.000048
    17  H   -0.000000   0.000000  -0.000151   0.000059  -0.000038   0.000047
    18  H   -0.000000   0.000000  -0.000124   0.000026   0.000001  -0.000009
    19  H    0.000000  -0.000000   0.000002  -0.000038  -0.000000  -0.000025
    20  H    0.000000  -0.000000  -0.000073   0.000004   0.000000   0.000001
    21  H    0.000083   0.000021  -0.000087  -0.000051  -0.000015   0.000023
    22  H    0.000026  -0.000101  -0.000053   0.000338   0.000477  -0.000190
    23  H    0.014527  -0.004600  -0.000025  -0.000042   0.000007   0.000005
    24  H   -0.004327   0.012957   0.000045  -0.000019   0.000002  -0.000015
    25  H    0.576875  -0.049161  -0.000002  -0.000082  -0.000019   0.000001
    26  H   -0.049161   0.557094   0.000007  -0.000066  -0.000040  -0.000007
    27  H   -0.000002   0.000007   0.424288  -0.010389   0.004548  -0.011050
    28  H   -0.000082  -0.000066  -0.010389   0.423516  -0.001717  -0.002548
    29  H   -0.000019  -0.000040   0.004548  -0.001717   0.515113  -0.045222
    30  H    0.000001  -0.000007  -0.011050  -0.002548  -0.045222   0.551354
    31  H    0.000000   0.000000   0.000020   0.000105   0.013499  -0.004186
    32  H   -0.000000  -0.000000  -0.000139   0.000006  -0.004116   0.013321
    33  H    0.000000   0.000000  -0.000032   0.000004   0.000106  -0.000061
    34  H   -0.000000   0.000000   0.000003   0.000001  -0.000040   0.000059
    35  H   -0.000000   0.000000   0.000001  -0.000000   0.000023   0.000022
    36  H   -0.009098   0.007743   0.000026   0.001114   0.000012   0.000043
    37  H   -0.003101  -0.003117   0.000000  -0.000027  -0.000030  -0.000001
    38  H    0.007579  -0.007985  -0.000012  -0.000038   0.000110   0.000007
    39  H   -0.000000   0.000000   0.000251   0.000017  -0.000000   0.000003
    40  H   -0.000000   0.000000   0.000055  -0.000004   0.000000  -0.000000
    41  H    0.000000   0.000000  -0.000040   0.000002   0.000000   0.000000
    42  H    0.000015   0.000001  -0.000408  -0.000219  -0.000013   0.000005
    43  H    0.000355  -0.000076   0.000252   0.002265   0.000019  -0.000013
    44  H    0.000007  -0.000000   0.001015  -0.000222   0.000026  -0.000012
    45  O    0.000000   0.000008   0.001171   0.015063  -0.040307  -0.046276
    46  O   -0.000001   0.000000  -0.001409   0.000838  -0.000078   0.000129
    47  O   -0.051638  -0.060193   0.004927  -0.008990   0.006232  -0.001081
              31         32         33         34         35         36
     1  P    0.000676   0.013295  -0.012705   0.027720   0.001556   0.020863
     2  C    0.000652  -0.001632  -0.005745  -0.001526   0.000089  -0.000187
     3  C    0.000486  -0.001158   0.011147  -0.010311   0.000272   0.000119
     4  C   -0.000031  -0.000002   0.000288  -0.000086  -0.000006   0.000018
     5  C    0.000494  -0.001598   0.000759  -0.005311  -0.000220   0.002580
     6  C   -0.001659  -0.000060   0.000157   0.000594  -0.000262  -0.007256
     7  C    0.000073  -0.000051  -0.000004  -0.000007   0.000001  -0.024179
     8  C    0.002352   0.003486   0.004983   0.004826  -0.001352   0.000603
     9  C   -0.012757  -0.017793  -0.004525  -0.009766   0.001544  -0.010993
    10  C    0.422108   0.441775  -0.027729  -0.025595  -0.052040  -0.000190
    11  C   -0.037260  -0.047812   0.410792   0.392553   0.421698  -0.000013
    12  C   -0.000297   0.000060  -0.000002   0.000011  -0.000001   0.392270
    13  C    0.000005  -0.000019   0.000027  -0.000011   0.000000  -0.000015
    14  C   -0.000322   0.000067  -0.000035  -0.000089   0.000001  -0.002515
    15  H   -0.000015  -0.000062   0.000171   0.000538  -0.000026   0.000000
    16  H    0.000003   0.000008   0.000000   0.000007  -0.000000   0.000000
    17  H   -0.000053   0.000026   0.000091   0.000069  -0.000029  -0.000000
    18  H   -0.000001  -0.000005  -0.000043   0.000032  -0.000001   0.000000
    19  H    0.000000   0.000001   0.000003   0.000000   0.000000  -0.000000
    20  H   -0.000000  -0.000000  -0.000001  -0.000000  -0.000000  -0.000000
    21  H   -0.000009   0.000004  -0.000001  -0.000015   0.000001   0.000002
    22  H    0.000778  -0.000119   0.000064  -0.000110  -0.000031   0.000006
    23  H    0.000001   0.000000  -0.000000  -0.000000   0.000000  -0.000045
    24  H   -0.000021  -0.000000  -0.000000   0.000003   0.000000   0.000060
    25  H    0.000000  -0.000000   0.000000  -0.000000  -0.000000  -0.009098
    26  H    0.000000  -0.000000   0.000000   0.000000   0.000000   0.007743
    27  H    0.000020  -0.000139  -0.000032   0.000003   0.000001   0.000026
    28  H    0.000105   0.000006   0.000004   0.000001  -0.000000   0.001114
    29  H    0.013499  -0.004116   0.000106  -0.000040   0.000023   0.000012
    30  H   -0.004186   0.013321  -0.000061   0.000059   0.000022   0.000043
    31  H    0.581411  -0.049342   0.007601  -0.009152  -0.003067   0.000000
    32  H   -0.049342   0.555566  -0.007920   0.007692  -0.003139   0.000000
    33  H    0.007601  -0.007920   0.525335  -0.031065  -0.021761   0.000000
    34  H   -0.009152   0.007692  -0.031065   0.547804  -0.023198   0.000000
    35  H   -0.003067  -0.003139  -0.021761  -0.023198   0.497160   0.000000
    36  H    0.000000   0.000000   0.000000   0.000000   0.000000   0.546090
    37  H    0.000000  -0.000000   0.000000  -0.000000   0.000000  -0.022746
    38  H    0.000003  -0.000000   0.000000  -0.000000   0.000000  -0.030610
    39  H   -0.000000  -0.000000  -0.000000   0.000000  -0.000000   0.000001
    40  H    0.000000  -0.000000   0.000000   0.000000   0.000000  -0.000000
    41  H   -0.000000   0.000000   0.000000   0.000000   0.000000   0.000000
    42  H    0.000000  -0.000000   0.000000  -0.000000  -0.000000  -0.000001
    43  H   -0.000000  -0.000000  -0.000000   0.000000  -0.000000  -0.000142
    44  H    0.000000  -0.000000  -0.000000   0.000000  -0.000000  -0.000008
    45  O   -0.053749  -0.059108  -0.003130  -0.003436   0.012905   0.000041
    46  O   -0.000002  -0.000000   0.000023   0.000022  -0.000000   0.000003
    47  O    0.000097  -0.000053  -0.000001  -0.000012   0.000000  -0.003179
              37         38         39         40         41         42
     1  P   -0.000696  -0.008908   0.008538  -0.010323   0.003066   0.018604
     2  C    0.000005   0.000165   0.005804   0.004485  -0.001772  -0.000324
     3  C   -0.000003  -0.000016  -0.006042  -0.004304   0.001273  -0.019597
     4  C    0.000000  -0.000009  -0.017341  -0.030989  -0.054965  -0.001118
     5  C   -0.000608   0.005023   0.000188  -0.000112  -0.000011  -0.008618
     6  C    0.002090  -0.004672  -0.000051   0.000032   0.000002  -0.001518
     7  C   -0.046822  -0.031228   0.000005  -0.000003  -0.000000  -0.000110
     8  C    0.000616  -0.007381  -0.003660   0.001241  -0.000369   0.030707
     9  C    0.000031   0.011354   0.002652  -0.000046  -0.000340  -0.003668
    10  C   -0.000002   0.000395   0.000032  -0.000010   0.000000  -0.000002
    11  C   -0.000000   0.000022   0.000014  -0.000002  -0.000001   0.000030
    12  C    0.416694   0.411753  -0.000014   0.000002   0.000000  -0.000101
    13  C   -0.000000   0.000004   0.386620   0.415662   0.423921  -0.000120
    14  C    0.000202   0.000552  -0.003655   0.003140  -0.000572   0.332898
    15  H   -0.000000  -0.000000  -0.000001   0.000005  -0.000000  -0.000100
    16  H   -0.000000  -0.000000  -0.000005  -0.000026   0.000003  -0.000361
    17  H    0.000000  -0.000000  -0.000074   0.000119   0.000020  -0.000018
    18  H    0.000000  -0.000000   0.000043  -0.000097   0.000017   0.000060
    19  H   -0.000000   0.000000  -0.009177   0.007589  -0.003071  -0.000002
    20  H    0.000000   0.000000   0.007710  -0.008029  -0.003351   0.000003
    21  H   -0.000001   0.000005  -0.000000  -0.000000  -0.000000   0.000126
    22  H    0.000001  -0.000028   0.000000  -0.000000  -0.000000  -0.000238
    23  H    0.000020   0.000091  -0.000000  -0.000000  -0.000000  -0.000277
    24  H    0.000021  -0.000059   0.000000   0.000000   0.000000  -0.000033
    25  H   -0.003101   0.007579  -0.000000  -0.000000   0.000000   0.000015
    26  H   -0.003117  -0.007985   0.000000   0.000000   0.000000   0.000001
    27  H    0.000000  -0.000012   0.000251   0.000055  -0.000040  -0.000408
    28  H   -0.000027  -0.000038   0.000017  -0.000004   0.000002  -0.000219
    29  H   -0.000030   0.000110  -0.000000   0.000000   0.000000  -0.000013
    30  H   -0.000001   0.000007   0.000003  -0.000000   0.000000   0.000005
    31  H    0.000000   0.000003  -0.000000   0.000000  -0.000000   0.000000
    32  H   -0.000000  -0.000000  -0.000000  -0.000000   0.000000  -0.000000
    33  H    0.000000   0.000000  -0.000000   0.000000   0.000000   0.000000
    34  H   -0.000000  -0.000000   0.000000   0.000000   0.000000  -0.000000
    35  H    0.000000   0.000000  -0.000000   0.000000   0.000000  -0.000000
    36  H   -0.022746  -0.030610   0.000001  -0.000000   0.000000  -0.000001
    37  H    0.496552  -0.021744  -0.000000  -0.000000   0.000000  -0.000000
    38  H   -0.021744   0.524945  -0.000000  -0.000000   0.000000  -0.000000
    39  H   -0.000000  -0.000000   0.549064  -0.030915  -0.023685   0.000000
    40  H   -0.000000  -0.000000  -0.030915   0.520423  -0.021680  -0.000000
    41  H    0.000000   0.000000  -0.023685  -0.021680   0.501052  -0.000000
    42  H   -0.000000  -0.000000   0.000000  -0.000000  -0.000000   0.443596
    43  H   -0.000011   0.000043  -0.000000   0.000008   0.000001  -0.010204
    44  H    0.000000   0.000001  -0.000070  -0.000117   0.000010  -0.007919
    45  O    0.000000   0.000020   0.000005  -0.000002   0.000001  -0.000130
    46  O    0.000000  -0.000001  -0.003907  -0.003821   0.013485  -0.002781
    47  O    0.012631  -0.002831   0.000005  -0.000000   0.000000  -0.000939
              43         44         45         46         47
     1  P    0.090525   0.003632   0.333707   0.188349   0.170375
     2  C    0.038320  -0.055102  -0.089888  -0.216031   0.000922
     3  C   -0.011409   0.029453   0.007429   0.053854   0.010976
     4  C    0.001327  -0.008649  -0.000800   0.100244   0.000236
     5  C   -0.053022   0.026977  -0.092861  -0.001108  -0.224770
     6  C    0.010957  -0.000747   0.008716   0.002356   0.052911
     7  C    0.002355  -0.000050  -0.000487  -0.000379   0.122997
     8  C   -0.046166  -0.002891  -0.210960  -0.075191  -0.090803
     9  C    0.001463  -0.008210  -0.016981   0.005033   0.037721
    10  C    0.000164  -0.000019   0.118958  -0.000511  -0.001878
    11  C   -0.000035   0.000002  -0.132169  -0.000085   0.001186
    12  C   -0.002835   0.000135   0.000018   0.000245  -0.126118
    13  C   -0.001287   0.009129   0.000697  -0.109381  -0.000004
    14  C    0.319988   0.362122  -0.014626   0.015257  -0.051386
    15  H   -0.000195  -0.000039  -0.010965   0.015486  -0.000254
    16  H   -0.000346   0.000829   0.005458  -0.000908  -0.000074
    17  H    0.000020   0.000175   0.007960  -0.036599   0.000028
    18  H    0.000023  -0.000201  -0.001460  -0.048681  -0.000002
    19  H    0.000007   0.000067   0.000024  -0.050307  -0.000001
    20  H    0.000001  -0.000109  -0.000074  -0.055930   0.000000
    21  H    0.000143  -0.000207   0.001813  -0.000148   0.017635
    22  H    0.000033  -0.000156  -0.000991   0.000024  -0.004173
    23  H   -0.001492  -0.000078  -0.000081   0.000016  -0.052340
    24  H    0.000039   0.000015   0.000224   0.000004  -0.045105
    25  H    0.000355   0.000007   0.000000  -0.000001  -0.051638
    26  H   -0.000076  -0.000000   0.000008   0.000000  -0.060193
    27  H    0.000252   0.001015   0.001171  -0.001409   0.004927
    28  H    0.002265  -0.000222   0.015063   0.000838  -0.008990
    29  H    0.000019   0.000026  -0.040307  -0.000078   0.006232
    30  H   -0.000013  -0.000012  -0.046276   0.000129  -0.001081
    31  H   -0.000000   0.000000  -0.053749  -0.000002   0.000097
    32  H   -0.000000  -0.000000  -0.059108  -0.000000  -0.000053
    33  H   -0.000000  -0.000000  -0.003130   0.000023  -0.000001
    34  H    0.000000   0.000000  -0.003436   0.000022  -0.000012
    35  H   -0.000000  -0.000000   0.012905  -0.000000   0.000000
    36  H   -0.000142  -0.000008   0.000041   0.000003  -0.003179
    37  H   -0.000011   0.000000   0.000000   0.000000   0.012631
    38  H    0.000043   0.000001   0.000020  -0.000001  -0.002831
    39  H   -0.000000  -0.000070   0.000005  -0.003907   0.000005
    40  H    0.000008  -0.000117  -0.000002  -0.003821  -0.000000
    41  H    0.000001   0.000010   0.000001   0.013485   0.000000
    42  H   -0.010204  -0.007919  -0.000130  -0.002781  -0.000939
    43  H    0.441382  -0.011725  -0.000088   0.001102   0.000423
    44  H   -0.011725   0.400447  -0.000036  -0.004823   0.000447
    45  O   -0.000088  -0.000036   8.425491  -0.005584  -0.003414
    46  O    0.001102  -0.004823  -0.005584   8.372684   0.000065
    47  O    0.000423   0.000447  -0.003414   0.000065   8.452905
 Mulliken charges:
               1
     1  P    1.077198
     2  C   -0.441147
     3  C   -0.424986
     4  C    0.008254
     5  C   -0.489943
     6  C   -0.425832
     7  C   -0.020761
     8  C   -0.277721
     9  C   -0.519738
    10  C   -0.019258
    11  C   -0.526315
    12  C   -0.520666
    13  C   -0.563658
    14  C   -0.903771
    15  H    0.240390
    16  H    0.233160
    17  H    0.176894
    18  H    0.176057
    19  H    0.140505
    20  H    0.154901
    21  H    0.230732
    22  H    0.256324
    23  H    0.167900
    24  H    0.183489
    25  H    0.145749
    26  H    0.157785
    27  H    0.246659
    28  H    0.234118
    29  H    0.180628
    30  H    0.175988
    31  H    0.141559
    32  H    0.158824
    33  H    0.153210
    34  H    0.137796
    35  H    0.169861
    36  H    0.139583
    37  H    0.170047
    38  H    0.153454
    39  H    0.137647
    40  H    0.157719
    41  H    0.167005
    42  H    0.232773
    43  H    0.227831
    44  H    0.266899
    45  O   -0.152105
    46  O   -0.151552
    47  O   -0.163481
 Sum of Mulliken charges =   1.00000
 Mulliken charges with hydrogens summed into heavy atoms:
               1
     1  P    1.077198
     2  C    0.032402
     3  C   -0.072035
     4  C    0.303660
     5  C   -0.002888
     6  C   -0.074443
     7  C    0.282772
     8  C    0.203055
     9  C   -0.163122
    10  C    0.281125
    11  C   -0.065449
    12  C   -0.057583
    13  C   -0.101288
    14  C   -0.176268
    45  O   -0.152105
    46  O   -0.151552
    47  O   -0.163481
 APT charges:
               1
     1  P    1.200834
     2  C   -0.177530
     3  C    0.480018
     4  C    0.596433
     5  C   -0.182197
     6  C    0.484693
     7  C    0.599415
     8  C   -0.192984
     9  C    0.476650
    10  C    0.592321
    11  C    0.012243
    12  C    0.010812
    13  C    0.014384
    14  C   -0.255568
    15  H    0.041654
    16  H    0.012058
    17  H   -0.024401
    18  H   -0.045029
    19  H   -0.063385
    20  H   -0.059062
    21  H    0.025160
    22  H    0.028032
    23  H   -0.044626
    24  H   -0.042235
    25  H   -0.062511
    26  H   -0.058444
    27  H    0.028580
    28  H    0.046654
    29  H   -0.027693
    30  H   -0.040884
    31  H   -0.063256
    32  H   -0.057340
    33  H    0.005091
    34  H   -0.003454
    35  H    0.015966
    36  H   -0.002597
    37  H    0.016781
    38  H    0.006148
    39  H   -0.005622
    40  H    0.008156
    41  H    0.014317
    42  H    0.042912
    43  H    0.050192
    44  H    0.088203
    45  O   -0.827272
    46  O   -0.835108
    47  O   -0.826510
 Sum of APT charges =   1.00000
 APT charges with hydrogens summed into heavy atoms:
               1
     1  P    1.200834
     2  C   -0.123819
     3  C    0.410588
     4  C    0.473986
     5  C   -0.129005
     6  C    0.397832
     7  C    0.478460
     8  C   -0.117749
     9  C    0.408074
    10  C    0.471725
    11  C    0.029845
    12  C    0.031145
    13  C    0.031235
    14  C   -0.074261
    45  O   -0.827272
    46  O   -0.835108
    47  O   -0.826510
 Electronic spatial extent (au):  <R**2>=           5955.9443
 Charge=              1.0000 electrons
 Dipole moment (field-independent basis, Debye):
    X=              0.8942    Y=             -0.4554    Z=              1.6819  Tot=              1.9585
 Quadrupole moment (field-independent basis, Debye-Ang):
   XX=            -79.6943   YY=            -92.3297   ZZ=            -99.6607
   XY=             -3.0554   XZ=              2.4515   YZ=             -0.2607
 Traceless Quadrupole moment (field-independent basis, Debye-Ang):
   XX=             10.8673   YY=             -1.7681   ZZ=             -9.0992
   XY=             -3.0554   XZ=              2.4515   YZ=             -0.2607
 Octapole moment (field-independent basis, Debye-Ang**2):
  XXX=             -1.3520  YYY=             32.7238  ZZZ=              1.1996  XYY=              8.8080
  XXY=            -39.3288  XXZ=            -20.9199  XZZ=              0.6932  YZZ=             -8.2811
  YYZ=             -1.8459  XYZ=             -4.5403
 Hexadecapole moment (field-independent basis, Debye-Ang**3):
 XXXX=          -3564.2857 YYYY=          -2310.8412 ZZZZ=          -1013.5900 XXXY=              3.1840
 XXXZ=             -6.2928 YYYX=             55.4902 YYYZ=           -149.3878 ZZZX=            -31.8743
 ZZZY=           -166.1382 XXYY=          -1070.0495 XXZZ=           -794.4976 YYZZ=           -591.0969
 XXYZ=              7.9681 YYXZ=            -13.7908 ZZXY=             17.8118
 N-N= 1.567660166649D+03 E-N=-5.649793903423D+03  KE= 1.076768389232D+03
  Exact polarizability: 198.186  -3.062 186.240  -0.233   5.224 170.575
 Approx polarizability: 251.768  -1.924 250.358  -0.598   1.240 250.002
 Breneman (CHELPG) radii used.
 Generate Potential Derived Charges using the Breneman model, NDens= 1.
 Grid spacing= 0.300 Box extension= 2.800
 NStep X,Y,Z=   53     47     37   Total possible points=       92167
 Number of Points to Fit=   23844

 **********************************************************************

            Electrostatic Properties Using The SCF Density

 **********************************************************************

       Atomic Center    1 is at  -0.038795 -0.499431  0.699235
       Atomic Center    2 is at  -1.506917  0.207551  1.530574
       Atomic Center    3 is at  -2.704876  0.361902  0.602196
       Atomic Center    4 is at  -4.013750 -0.876582 -0.961816
       Atomic Center    5 is at   1.401854 -0.039328  1.727531
       Atomic Center    6 is at   2.651364 -0.855723  1.417019
       Atomic Center    7 is at   4.020363 -1.518937 -0.421559
       Atomic Center    8 is at   0.127760  0.103867 -1.016375
       Atomic Center    9 is at   0.673957  1.523324 -1.087737
       Atomic Center   10 is at   0.328809  3.687805 -0.137770
       Atomic Center   11 is at  -0.466067  4.393462  0.940358
       Atomic Center   12 is at   4.072702 -1.470089 -1.933636
       Atomic Center   13 is at  -4.062709 -2.215390 -1.666724
       Atomic Center   14 is at  -0.182874 -2.302659  0.658052
       Atomic Center   15 is at  -1.215018  1.180039  1.927637
       Atomic Center   16 is at  -1.742240 -0.461282  2.363500
       Atomic Center   17 is at  -2.530375  1.187745 -0.098273
       Atomic Center   18 is at  -3.596320  0.602090  1.194725
       Atomic Center   19 is at  -3.929819 -0.051548 -1.681940
       Atomic Center   20 is at  -4.918708 -0.711020 -0.364459
       Atomic Center   21 is at   1.108617 -0.173632  2.772647
       Atomic Center   22 is at   1.569202  1.027186  1.566685
       Atomic Center   23 is at   2.545793 -1.885750  1.784829
       Atomic Center   24 is at   3.514670 -0.410267  1.926952
       Atomic Center   25 is at   4.003449 -2.554980 -0.058629
       Atomic Center   26 is at   4.891696 -1.020567  0.020643
       Atomic Center   27 is at  -0.866024  0.025631 -1.460333
       Atomic Center   28 is at   0.799498 -0.586338 -1.526282
       Atomic Center   29 is at   1.747363  1.526214 -0.863267
       Atomic Center   30 is at   0.537619  1.919353 -2.101516
       Atomic Center   31 is at   1.408293  3.774924  0.043832
       Atomic Center   32 is at   0.118765  4.114105 -1.126405
       Atomic Center   33 is at  -1.538340  4.299629  0.755442
       Atomic Center   34 is at  -0.241521  3.979956  1.926696
       Atomic Center   35 is at  -0.215511  5.456253  0.955284
       Atomic Center   36 is at   3.213666 -1.983540 -2.372313
       Atomic Center   37 is at   4.978910 -1.962915 -2.291995
       Atomic Center   38 is at   4.084574 -0.437169 -2.288103
       Atomic Center   39 is at  -3.165697 -2.372354 -2.270744
       Atomic Center   40 is at  -4.147321 -3.030183 -0.944598
       Atomic Center   41 is at  -4.929162 -2.257076 -2.330205
       Atomic Center   42 is at  -0.250664 -2.691825  1.675480
       Atomic Center   43 is at   0.690824 -2.724237  0.160949
       Atomic Center   44 is at  -1.093293 -2.557046  0.117001
       Atomic Center   45 is at  -0.038029  2.301271 -0.140044
       Atomic Center   46 is at  -2.872127 -0.860215 -0.093046
       Atomic Center   47 is at   2.828409 -0.848229  0.014501
   23844 points will be used for fitting atomic charges
 Fitting point charges to electrostatic potential
 The dipole moment will be constrained to the correct value
 Charges from ESP fit, RMS=   0.00185 RRMS=   0.01887:
 ESP charges:
               1
     1  P    0.574151
     2  C   -0.223704
     3  C    0.166954
     4  C    0.193260
     5  C   -0.198653
     6  C    0.156344
     7  C    0.166965
     8  C   -0.232347
     9  C    0.167795
    10  C    0.144773
    11  C   -0.178025
    12  C   -0.204047
    13  C   -0.157345
    14  C   -0.376663
    15  H    0.079430
    16  H    0.117282
    17  H   -0.001475
    18  H    0.066499
    19  H    0.020419
    20  H    0.026069
    21  H    0.090174
    22  H    0.114368
    23  H    0.010246
    24  H    0.043880
    25  H    0.019633
    26  H    0.032812
    27  H    0.145206
    28  H    0.085399
    29  H   -0.003179
    30  H    0.044409
    31  H    0.027630
    32  H    0.034630
    33  H    0.062651
    34  H    0.052197
    35  H    0.077111
    36  H    0.064408
    37  H    0.083327
    38  H    0.065599
    39  H    0.046763
    40  H    0.066805
    41  H    0.063534
    42  H    0.146661
    43  H    0.152118
    44  H    0.123160
    45  O   -0.287539
    46  O   -0.379937
    47  O   -0.289746
 Sum of ESP charges =   1.00000
 ESP charges with hydrogens summed into heavy atoms:
               1
     1  P    0.574151
     2  C   -0.026993
     3  C    0.231977
     4  C    0.239748
     5  C    0.005889
     6  C    0.210470
     7  C    0.219410
     8  C   -0.001742
     9  C    0.209026
    10  C    0.207033
    11  C    0.013934
    12  C    0.009286
    13  C    0.019758
    14  C    0.045276
    45  O   -0.287539
    46  O   -0.379937
    47  O   -0.289746
 Charge=   1.00000 Dipole=     0.8942    -0.4554     1.6819 Tot=     1.9585
 -----------------------------------------------------------------

              Electrostatic Properties (Atomic Units)

 -----------------------------------------------------------------
    Center     Electric         -------- Electric Field --------
               Potential          X             Y             Z
 -----------------------------------------------------------------
    1 Atom    -53.979415
    2 Atom    -14.621917
    3 Atom    -14.595641
    4 Atom    -14.618768
    5 Atom    -14.616138
    6 Atom    -14.586898
    7 Atom    -14.613694
    8 Atom    -14.623940
    9 Atom    -14.594027
   10 Atom    -14.615042
   11 Atom    -14.680117
   12 Atom    -14.679563
   13 Atom    -14.684859
   14 Atom    -14.630168
   15 Atom     -0.960463
   16 Atom     -0.961105
   17 Atom     -0.997883
   18 Atom     -0.994388
   19 Atom     -1.015919
[...]
 289,0.00000344,-0.00000154,-0.00000061,-0.00000802,0.00000378,0.000006
 10,0.00000639,0.00000912,0.00000802,0.00000679,0.00000020,0.00000759,0
 .00000055,0.00000111,0.00000953,-0.00005293,-0.00000498,-0.00014001,-0
 .00024918,-0.00017072,0.00002310,0.00005976,-0.00010658,0.00007938,0.0
 0348214,0.00172434,0.00262377,-0.01680786,-0.00664936,-0.01195006,0.25
 503371,-0.02507686,-0.00809973,-0.01561099,0.00097082,0.00134116,0.000
 71395,-0.00022217,-0.00153425,-0.00118041,0.00101753,0.00062421,0.0011
 0714,0.00071416,-0.00663978,0.00141324,0.00121365,-0.00057135,0.000148
 34,0.00008904,-0.00015992,0.00001443,0.00109446,0.00155677,0.00011764,
 0.00000395,-0.00028925,-0.00050042,-0.00008310,-0.00003350,0.00001423,
 -0.00001350,0.00003130,-0.00001937,-0.00004334,0.00002405,-0.00000862,
 0.00007956,0.00008367,-0.00012112,-0.05889226,-0.05679895,-0.03528717,
 -0.00038795,0.00018726,0.00023820,0.00018768,-0.00009067,-0.00011766,0
 .00001776,0.00022785,0.00003723,-0.00000447,0.00024239,0.00028209,-0.0
 0018964,0.00002581,-0.00022164,-0.00032487,0.00002050,-0.00013209,0.00
 014389,0.00000899,-0.00003060,-0.00172216,-0.00024088,-0.00145765,-0.0
 0003159,0.00038768,-0.00005097,-0.00002479,0.00019738,0.00000190,-0.00
 003768,0.00003956,-0.00000417,-0.00000567,0.00002477,-0.00000197,-0.00
 006615,-0.00050314,0.00074191,-0.00008865,-0.00000517,0.00010988,0.000
 10444,0.00014901,-0.00003608,0.00006330,0.00009779,0.00003485,0.000039
 64,0.00002373,-0.00001946,0.00001254,-0.00001482,0.00001124,0.00002140
 ,-0.00001900,0.00001214,-0.00002107,-0.00000178,0.00001470,0.00000664,
 0.00000633,0.00000315,0.00000688,0.00001518,0.00001756,0.00000684,0.00
 000072,0.00002321,-0.00000364,-0.00000650,-0.00000528,0.00003610,0.000
 08144,0.00003172,-0.00010970,-0.00003240,0.00007753,-0.00003371,-0.000
 09014,-0.00000167,0.01115483,0.00310147,0.00557300,0.01066137,0.003289
 77,0.00825516,0.06072395,0.06240066,0.00075021,-0.00104131,-0.00135322
 ,0.00031138,-0.00016144,0.00001055,0.00007608,-0.00022235,0.00000773,0
 .00011890,0.00048898,0.00035499,-0.00003562,0.00019106,0.00049305,-0.0
 0003900,-0.00002023,-0.00037952,-0.00016357,0.00005839,0.00012342,-0.0
 0006362,-0.00018916,0.00004087,0.00000758,0.00004539,0.00002399,0.0000
 0997,0.00001302,-0.00000967,-0.00000444,-0.00000735,0.00000700,0.00002
 207,0.00001060,0.00001478,-0.00018230,-0.00004863,0.00036054,-0.115265
 78,-0.03283425,-0.11393175,-0.00001737,0.00006786,-0.00005148,-0.00001
 052,-0.00011398,-0.00018344,-0.00000227,0.00006420,-0.00001646,-0.0000
 1826,-0.00003509,-0.00001939,-0.00010962,0.00002365,-0.00008795,-0.000
 03217,-0.00005992,-0.00007551,0.00018343,0.00023549,0.00020661,-0.0000
 6363,0.00009714,0.00015981,0.00001606,-0.00006056,-0.00008411,0.000009
 83,-0.00000659,0.00001360,-0.00001854,-0.00000439,-0.00001124,0.000038
 53,-0.00000935,-0.00001415,-0.00003770,0.00028225,-0.00000764,0.000170
 00,0.00002383,0.00002514,-0.00001083,-0.00003435,-0.00000395,0.0000050
 7,-0.00000154,-0.00000896,0.00000064,-0.00000100,-0.00000021,-0.000001
 94,0.00000425,-0.00000319,0.00000340,-0.00000273,0.00000234,-0.0000037
 5,-0.00000097,-0.00000703,0.00000414,-0.00000033,-0.00000513,-0.000008
 29,-0.00000699,0.00000683,-0.00000013,0.00000006,-0.00001034,-0.000000
 30,0.00000540,-0.00000532,0.00001837,0.00001152,-0.00036552,-0.0000294
 6,0.00001731,0.00003082,0.00013380,-0.00006216,-0.00008881,-0.02414240
 ,-0.00869445,-0.01337507,0.01336274,0.00578092,0.00861207,0.12589927,0
 .03538529,0.12067396,-0.00286320,0.00069422,0.00035667,-0.00065307,-0.
 00061103,0.00170008,-0.00038323,0.00239214,-0.00090141,0.00060567,0.00
 015757,0.00027944,-0.00083291,-0.00045308,-0.00078278,0.00000677,0.000
 43911,0.00067857,0.00033107,-0.00024840,-0.00014284,0.00886552,-0.0028
 6472,-0.00726705,-0.11986008,0.01502283,0.05866113,-0.08983574,-0.0267
 0971,0.01986012,0.00771770,0.02096935,-0.00043129,-0.00014207,-0.00026
 773,0.00010696,-0.00010938,0.00001755,0.00000863,0.00069384,-0.0000250
 9,-0.00000752,-0.00028594,-0.00074906,-0.00061621,-0.00015460,-0.00071
 251,-0.00010274,0.00020491,-0.00091202,0.00123682,-0.00003497,-0.00046
 721,0.00049356,-0.00005094,0.00001935,0.00005755,-0.00003363,0.0000096
 5,0.00000485,-0.00000604,0.00038258,-0.00018864,0.00036970,0.00063180,
 0.00039214,-0.00010831,0.00017930,-0.00008082,0.00011563,-0.00011715,-
 0.00007689,-0.00007197,0.00013680,-0.00004707,-0.00000804,-0.00003418,
 0.00002753,0.00104239,0.00069136,-0.00016120,-0.00057489,-0.00277658,0
 .00007801,-0.01979762,0.02425024,0.03285626,0.00203805,0.00107587,0.00
 799585,-0.00668304,-0.03942225,0.00293248,0.00443142,0.00175626,0.0033
 9880,0.00179232,-0.00022203,-0.00147252,0.00039692,-0.00036126,-0.0005
 5917,-0.00194673,0.00268096,0.00357584,0.00003445,0.00001808,0.0000083
 8,-0.00001937,0.00010441,-0.00003150,0.00015783,0.00009109,-0.00013669
 ,0.00003903,-0.00001343,-0.00001622,0.00001651,-0.00003080,0.00000732,
 -0.00001128,-0.00003347,-0.00003567,-0.00006020,-0.00000023,-0.0000205
 9,-0.00005645,-0.00019674,-0.00002787,-0.00008160,0.00016687,0.0000161
 0,0.21613648,0.00164164,0.00721676,-0.00499855,-0.00078510,-0.00230095
 ,0.00257215,-0.00004480,0.00005018,0.00035355,0.00095709,0.00002214,0.
 00060047,0.00067536,-0.00069737,0.00145124,-0.00035743,-0.00010722,-0.
 00050631,-0.00124018,0.00050965,0.00048062,0.02558678,-0.03590976,-0.0
 3205331,0.04271368,-0.11644889,-0.05644892,-0.05323252,-0.17858746,0.0
 2566717,-0.00529273,-0.03462940,-0.00430375,0.00008223,-0.00013801,-0.
 00022682,-0.00000245,-0.00002653,-0.00017603,0.00000055,0.00004537,0.0
 0059565,-0.00016289,-0.00171878,0.00003397,-0.00108896,0.00001374,0.00
 010377,0.00018496,-0.00092114,0.00012986,-0.00043915,-0.00041726,0.000
 21235,0.00003983,0.00001851,-0.00010345,-0.00017235,0.00001333,0.00004
 550,0.00043370,-0.00031067,0.00027945,-0.00037913,-0.00123101,-0.00061
 732,0.00008509,-0.00014718,0.00003856,0.00026649,-0.00002548,0.0001089
 7,0.00013804,-0.00015969,-0.00000921,0.00024679,-0.00000538,0.00006998
 ,0.00020979,0.00173545,0.00012120,-0.00449967,-0.00802324,-0.00021512,
 0.00987807,-0.00593817,-0.00810593,-0.00236318,0.00311372,-0.00472505,
 -0.01265003,-0.02368735,-0.00253408,-0.00879806,-0.03681789,0.00375366
 ,0.00001702,0.00189962,0.00137828,-0.00069509,0.00228712,0.00006771,0.
 00290442,-0.00079740,-0.00373605,-0.00000073,0.00025521,0.00012677,0.0
 0014196,-0.00008106,0.00004084,-0.00022170,-0.00005960,0.00007240,-0.0
 0000747,0.00005318,0.00012869,0.00003909,0.00001627,0.00002542,-0.0000
 7946,-0.00001870,-0.00003132,-0.00006867,-0.00019141,0.00004155,-0.000
 16078,0.00018990,-0.00008301,0.00019572,0.00002461,-0.00005543,0.00613
 482,0.43268283,-0.00066892,-0.00080017,-0.00431995,0.00113634,-0.00024
 567,-0.00104834,-0.00048034,0.00013738,-0.00083122,-0.00021377,0.00018
 266,-0.00034699,-0.00229320,-0.00007589,0.00008980,0.00098167,0.000567
 52,-0.00164654,0.00002835,-0.00003302,-0.00001885,0.00200761,-0.007121
 31,-0.00185761,0.06617719,-0.02860551,-0.13823864,0.01254552,-0.003951
 67,-0.07885665,-0.00797734,-0.03320754,0.00093638,-0.00000256,0.000155
 18,-0.00009453,0.00011226,-0.00003437,0.00002289,-0.00006381,-0.000075
 66,0.00103253,-0.00025506,0.00115048,0.00093275,0.00012392,0.00091248,
 0.00057104,0.00016037,-0.00011788,-0.00022783,-0.00005164,-0.00008909,
 0.00009596,0.00007053,-0.00009085,0.00005592,-0.00001057,-0.00002922,0
 .00005958,0.00025468,0.00029866,0.00007730,0.00146737,0.00080274,0.000
 03938,-0.00037387,0.00015852,0.00033887,0.00003776,0.00000068,0.000110
 30,0.00002439,-0.00009113,0.00004244,0.00003181,0.00003526,0.00001644,
 -0.00013573,0.00087842,0.00013515,-0.00029264,0.00061789,0.00042009,0.
 00985802,-0.00414793,0.00088483,0.02516007,-0.02607937,-0.03067868,-0.
 00010210,-0.00836027,0.00284917,0.01152740,0.02885068,0.00452621,-0.00
 062687,0.00094058,0.00111164,-0.00148475,0.00063462,0.00215586,0.00359
 080,-0.00323691,-0.00425518,0.00001785,0.00009906,0.00002044,0.0000432
 9,-0.00006872,0.00007925,-0.00015568,-0.00010313,0.00005676,-0.0000369
 2,0.00004911,0.00001593,-0.00002286,-0.00002011,0.00001394,0.00000415,
 0.00003234,0.00001580,-0.00003380,-0.00027009,0.00003012,-0.00001263,0
 .00021677,-0.00007170,0.00003856,0.00018646,-0.00006617,-0.12032837,0.
 07999152,0.24380918,0.00637365,-0.00040863,0.00248953,-0.00814983,-0.0
 3458127,-0.02072746,-0.08346949,-0.01318666,-0.02022963,-0.15385081,0.
 03389493,-0.05006409,0.00017551,0.00016989,0.00000131,0.00032829,-0.00
 022508,-0.00022348,0.00070103,-0.00034993,-0.00030626,-0.00124065,-0.0
 0172458,0.00196266,-0.00076601,0.00094314,-0.00027904,0.00018785,0.001
 23214,-0.00005184,-0.00008682,-0.00018239,-0.00013467,-0.00008200,0.00
 005454,0.00006996,-0.00781510,-0.00429855,-0.00910298,-0.00221375,0.00
 253244,0.00037069,-0.00549991,0.00108182,-0.00540422,0.00077022,0.0002
 3744,0.00078657,0.00133498,-0.00822366,-0.00614811,0.00793593,0.023153
 10,0.00916811,-0.00846350,0.00396177,-0.01438989,-0.03859307,0.0011076
 0,-0.02950148,-0.00004879,-0.00008791,0.00010115,0.00001999,0.00006961
 ,-0.00008573,0.00002027,0.00002562,0.00007757,-0.00015688,-0.00000148,
 0.00007368,-0.00003441,0.00006238,0.00000007,-0.00010622,0.00000992,-0
 .00000260,-0.00145267,0.00023036,-0.00173902,-0.00041601,-0.00022934,0
 .00003950,-0.00013179,-0.00046164,-0.00006099,-0.00003341,-0.00016877,
 0.00012406,-0.00006660,-0.00013232,-0.00000194,-0.00004384,-0.00014682
 ,0.00012543,-0.00001901,0.00011355,-0.00003551,0.00009614,0.00008771,0
 .00012756,-0.00002997,-0.00009722,0.00002404,0.00003163,-0.00006450,-0
 .00004941,-0.00005998,0.00001993,0.00001659,0.00006130,0.00000083,-0.0
 0001823,0.00188564,-0.00027609,0.00017843,0.00053598,0.00032568,0.0010
 9025,0.00130673,-0.00073468,0.00008091,-0.00039862,0.00008995,-0.00016
 381,-0.00066493,0.00019909,-0.00068463,-0.00253491,-0.00094864,-0.0012
 7526,-0.00040007,-0.00127101,0.00033769,0.29600454,0.00218043,-0.00357
 550,-0.00095140,-0.00653417,-0.00280996,-0.00634563,0.01686038,-0.1938
 5733,-0.04464392,0.00382475,-0.08605006,-0.00771516,-0.00041425,0.0007
 6768,0.00003371,0.00003107,-0.00034598,-0.00009773,0.00013368,-0.00017
 215,-0.00006009,-0.00042531,0.00066767,0.00085126,0.00059480,-0.000981
 00,-0.00092928,0.00015722,0.00068629,0.00002584,0.00033292,-0.00012934
 ,0.00005337,-0.00006320,-0.00002136,0.00001140,-0.03373029,0.00001204,
 -0.02621252,0.00015428,-0.00112079,-0.00006089,0.00066331,0.00085470,0
 .00023616,-0.00000847,0.00119019,-0.00030680,-0.00512948,-0.03977687,-
 0.02100081,0.00164207,-0.02033151,-0.01674952,0.02134157,0.00269985,0.
 01200311,0.00231269,0.00121871,0.00102383,0.00004565,-0.00005362,0.000
 08291,0.00027186,0.00005571,0.00015642,-0.00007928,0.00011657,-0.00003
 176,-0.00003746,0.00006802,0.00000694,-0.00003209,0.00004808,-0.000024
 99,-0.00000874,0.00002071,0.00001301,-0.00029596,-0.00064241,-0.000431
 93,-0.00035477,-0.00017627,0.00016792,-0.00018104,0.00009135,0.0001003
 4,0.00001788,0.00009834,0.00012446,-0.00020468,-0.00012715,0.00000886,
 0.00004623,-0.00005139,0.00005328,-0.00019847,0.00025084,-0.00005564,0
 .00004846,0.00005168,0.00003746,-0.00015416,-0.00006108,0.00002190,0.0
 0002382,-0.00001828,0.00000948,-0.00001476,0.00000853,0.00000409,0.000
 03213,0.00002499,-0.00001400,0.00022774,0.00195423,0.00101384,-0.00012
 917,0.00274755,0.00107404,-0.00036563,-0.00701295,-0.00406665,0.000193
 08,0.00005053,0.00020134,0.00069792,0.00055402,0.00043620,0.00057210,0
 .00064566,0.00057225,-0.00176448,0.00002372,0.00040303,-0.00212597,0.3
 4208509,0.00593985,-0.00062482,-0.00286954,-0.00967172,-0.03072174,-0.
 01733078,-0.00617729,-0.06700179,-0.09969222,-0.06587456,0.01420917,-0
 .10622245,-0.00067777,0.00044215,0.00070511,0.00022692,-0.00031988,-0.
 00054638,0.00039766,-0.00020724,-0.00018248,-0.00076322,0.00155773,-0.
 00109856,0.00111316,-0.00082055,-0.00022956,0.00001461,0.00044447,-0.0
 0005546,0.00000130,-0.00005391,-0.00013621,-0.00009093,0.00001241,0.00
 000577,-0.02378230,-0.00415179,-0.01802689,-0.00225501,0.00119717,0.00
 156375,-0.00430632,0.00116275,-0.00344349,0.00162263,0.00012591,0.0014
 2060,-0.00203368,0.00572028,0.01350149,-0.00351286,-0.02829261,-0.0134
 8200,-0.03221046,0.00044664,-0.02179788,-0.00121734,-0.00141476,0.0093
 6387,0.00026927,-0.00007182,0.00025654,0.00008263,0.00004387,-0.000121
 48,-0.00001521,0.00001690,0.00007355,-0.00013070,0.00006151,0.00009153
 ,-0.00002522,0.00001858,0.00000278,-0.00004036,0.00001985,0.00001838,0
 .00038799,-0.00086208,0.00062844,0.00015509,-0.00018823,0.00041663,0.0
 0001613,0.00039536,0.00008946,-0.00011636,-0.00018258,0.00015028,-0.00
 007448,-0.00006248,-0.00000260,-0.00002270,-0.00009052,0.00011558,-0.0
 0006144,0.00011715,-0.00009542,0.00013669,0.00005841,0.00015898,-0.000
 06858,-0.00005935,0.00007464,0.00003326,0.00000788,-0.00001032,-0.0000
 1589,0.00000575,0.00003099,0.00001299,-0.00001421,-0.00000239,0.000552
 61,0.00191969,0.00103902,0.00083624,0.00026936,0.00143674,0.00036820,-
 0.00425290,-0.00127701,0.00027555,-0.00016698,0.00014025,-0.00026916,0
 .00054231,-0.00030543,-0.00094124,-0.00010204,-0.00110742,-0.00067722,
 -0.00021049,0.00084006,0.14308978,0.11088682,0.25537972,0.00673288,-0.
 00236047,-0.00014446,0.00007093,-0.00000788,-0.00024683,0.00033741,0.0
 0011667,0.00035581,0.00068334,0.00009563,0.00048623,-0.00898616,0.0006
 3425,0.04183627,-0.08537317,0.01012494,0.02296084,-0.16112916,0.056346
 66,-0.00575001,-0.00336131,0.00014860,-0.00254993,-0.00033751,-0.00061
 125,-0.00038522,-0.00036626,-0.00108781,0.00005852,0.00007037,0.000137
 37,0.00008040,-0.00874185,0.00539382,0.00853488,-0.00007791,-0.0000240
 5,-0.00008307,-0.00138629,-0.00131728,-0.00023059,-0.00001073,-0.00015
 767,0.00005907,0.00004187,0.00018704,-0.00003452,0.00000113,-0.0000542
 7,-0.00007062,-0.00016524,-0.00006129,-0.00005857,-0.00003096,0.000021
 21,-0.00005518,-0.00010633,0.00001032,-0.00001423,-0.00622266,0.004831
 77,0.00191785,0.00095655,-0.00061744,-0.00045396,0.00120334,0.00068439
 ,0.00866690,0.00773364,0.00383954,-0.02345036,-0.01204143,0.01483714,0
 .00450990,-0.04014543,0.02301799,0.01324495,-0.00033738,0.00122980,-0.
 00017041,-0.00191278,0.00099238,0.00130671,-0.00067229,-0.00012531,0.0
 0027498,-0.00035526,0.00029542,-0.00014409,0.00010972,0.00004265,0.000
 04877,0.00000923,0.00010588,-0.00009384,0.00001580,-0.00005176,0.00000
 314,-0.00003284,-0.00006387,-0.00007181,-0.00001399,0.00008250,0.00000
 257,0.00194142,-0.00012150,0.00007791,0.00139352,-0.00039509,0.0006500
 2,0.00064978,-0.00084091,-0.00078416,0.00002766,0.00001415,0.00007275,
 0.00005371,0.00000760,0.00001433,-0.00005532,-0.00000775,-0.00003169,-
 0.00033530,0.00020119,0.00003568,-0.00028412,0.00138029,0.00036897,-0.
 00018609,-0.00020569,0.00037920,0.00006916,0.00144046,-0.00011418,-0.0
 0094063,-0.00015418,-0.00050049,0.31150692,-0.00306701,-0.00261413,-0.
 00034345,0.00034029,0.00042130,0.00030344,-0.00015797,-0.00026306,-0.0
 0023178,-0.00024342,-0.00006028,-0.00014466,0.00486547,0.00269678,-0.0
 2516749,0.01295015,-0.07301259,0.00161010,0.05466479,-0.09630431,0.004
 31812,0.00190955,0.00029036,0.00083297,-0.00223725,-0.00040631,0.00047
 994,-0.00011214,0.00065536,-0.00008834,-0.00000681,-0.00004415,-0.0000
 0163,0.00363282,-0.00001459,-0.00392216,0.00003940,-0.00000878,0.00001
 635,0.00007742,-0.00075070,-0.00015497,-0.00021373,0.00014342,0.000051
 48,0.00004235,-0.00010284,-0.00006916,-0.00004295,0.00005837,-0.000002
 57,0.00007188,0.00004357,0.00003761,0.00000432,0.00001802,-0.00000312,
 0.00002729,0.00000478,0.00001029,0.00398214,-0.00222980,-0.00115160,-0
 .00141145,0.00124931,0.00010423,-0.00167353,0.00641202,0.03316327,0.00
 420989,0.00482028,-0.01567786,0.03916756,-0.01744014,-0.01269154,-0.00
 099351,0.00928419,0.00310452,0.00019120,-0.00026750,0.00025122,0.00049
 831,-0.00057499,-0.00008078,0.00124200,0.00043878,0.00003468,0.0006999
 3,-0.00002022,0.00020086,0.00004284,0.00002288,0.00002142,0.00002864,-
 0.00003868,0.00006878,0.00003655,0.00001157,-0.00000693,-0.00000856,0.
 00002876,0.00002063,0.00000150,-0.00003911,-0.00001340,-0.00021385,-0.
 00007361,0.00079413,-0.00047147,0.00083561,0.00026319,-0.00084591,0.00
 110332,-0.00065385,-0.00001612,-0.00002052,0.00000603,0.00000747,0.000
 01504,-0.00001843,0.00000571,0.00001868,0.00001250,-0.00015110,0.00012
 239,0.00011723,0.00010129,0.00083280,0.00020534,-0.00031439,0.00027153
 ,0.00029568,0.00097091,-0.00077430,-0.00044653,0.00032369,0.00032221,0
 .00019064,-0.11795420,0.16493926,-0.00493851,-0.00020320,-0.00405254,0
 .00067993,-0.00012119,0.00103129,-0.00012551,-0.00010236,-0.00061769,-
 0.00027703,0.00000734,-0.00030247,0.01080055,-0.00335346,-0.02169296,-
 0.01162671,0.02066725,-0.22108068,0.02961838,-0.01552826,-0.08744400,0
 .00037330,0.00015862,-0.00121745,0.00096010,-0.00041635,-0.00034738,-0
 .00009877,-0.00007921,-0.00003724,-0.00000241,0.00007129,-0.00014379,0
 .04282014,-0.02369396,-0.01710174,0.00009544,0.00000438,0.00000443,0.0
 0132109,0.00000430,0.00085305,-0.00015390,0.00022499,-0.00004363,-0.00
 026626,-0.00002591,0.00011130,0.00008833,-0.00003363,0.00010574,0.0000
 9830,-0.00000800,0.00011885,0.00003907,-0.00004215,0.00003803,0.000027
 22,0.00000192,0.00003784,0.00166846,-0.00157274,0.00025024,-0.00088564
 ,-0.00007239,0.00101543,0.00637687,0.00763426,-0.03429195,0.00089000,-
 0.00277112,-0.03815084,-0.00255054,-0.00154845,0.00203719,-0.00184450,
 0.00459352,0.00301610,-0.00060629,0.00025985,0.00101975,0.00008831,0.0
 0054908,0.00088228,-0.00033761,-0.00027770,-0.00059570,-0.00002874,-0.
 00023342,0.00004616,0.00003028,0.00004479,-0.00010635,0.00005116,-0.00
 002979,0.00006760,-0.00000111,0.00000631,0.00002147,-0.00001374,0.0000
 1003,0.00011168,-0.00001828,-0.00000659,0.00004095,-0.00051570,-0.0001
 5928,0.00301296,0.00007805,0.00043623,-0.00917299,-0.00031555,0.000185
 24,0.00299227,-0.00003365,0.00001265,-0.00000890,-0.00003335,-0.000013
 26,0.00000526,0.00001832,0.00001311,0.00001890,-0.00053447,-0.00032245
 ,0.00027810,-0.00002889,0.00029664,-0.00057359,-0.00010166,0.00034320,
 0.00010456,-0.00062076,0.00064885,0.00117288,0.00034474,0.00008542,0.0
 0053180,-0.07050844,0.01435561,0.41805578\\-0.00000013,0.00000019,0.00
 000005,-0.00000002,0.00000036,-0.00000016,-0.00000005,0.00000033,-0.00
 000020,0.00000002,0.00000011,-0.00000009,-0.00000017,0.00000013,0.0000
 0006,-0.00000014,0.00000008,0.00000035,-0.00000009,-0.00000031,0.00000
 054,0.00000009,-0.00000021,0.00000007,0.00000019,-0.00000022,-0.000000
 23,0.00000025,-0.00000005,-0.00000059,0.00000022,0.00000017,-0.0000007
 7,0.,-0.00000057,0.00000053,-0.00000003,0.,0.00000014,-0.00000023,0.00
 000020,0.00000038,-0.00000005,0.00000040,-0.00000024,-0.00000020,0.000
 00051,0.,0.00000009,0.00000016,-0.00000036,-0.00000006,0.00000043,-0.0
 0000034,0.00000009,0.,-0.00000025,-0.00000003,0.00000026,-0.00000017,-
 0.00000016,0.00000042,0.00000011,-0.00000004,0.00000021,-0.00000007,-0
 .00000024,0.00000013,0.00000049,-0.00000015,0.00000011,0.00000029,-0.0
 0000017,-0.00000027,0.00000070,-0.00000007,-0.00000029,0.00000049,0.00
 000007,-0.00000020,-0.00000007,0.00000004,-0.00000029,0.00000016,0.000
 00016,-0.00000025,-0.00000014,0.00000024,-0.00000036,-0.00000028,0.000
 00025,-0.00000007,-0.00000054,0.00000032,-0.00000019,-0.00000069,0.000
 00020,0.00000024,-0.00000081,0.00000013,0.00000035,-0.00000066,0.00000
 029,0.00000020,-0.00000093,0.,-0.00000061,0.00000054,0.00000002,-0.000
 00070,0.00000065,0.00000011,-0.00000062,0.00000032,0.,-0.00000017,0.00
 000020,-0.00000015,0.00000010,0.00000026,-0.00000002,-0.00000006,0.000
 00007,-0.00000028,0.00000028,0.00000046,-0.00000017,-0.00000001,0.0000
 0051,-0.00000018,0.00000008,0.00000036,0.00000014,0.00000004,-0.000000
 39,-0.00000008,0.00000016,-0.00000005,-0.00000002,-0.00000019,0.000000
 29\\\@


 THERE IS NO SCIENCE WITHOUT FANCY, NOR ART WITHOUT FACTS.
     -- VLADIMIR NABAKOV
 Job cpu time:       0 days 17 hours 36 minutes 28.1 seconds.
 File lengths (MBytes):  RWF=   1289 Int=      0 D2E=      0 Chk=     20 Scr=      1
 Normal termination of Gaussian 09 at Mon Nov 30 20:22:34 2020.
