 Entering Gaussian System, Link 0=g09
 Initial command:
 /apps/gaussian/g09_e01/g09/l1.exe "/rds/general/ephemeral/user/fdp18/ephemeral/gaussian/Gau-279889.inp" -scrdir="/rds/general/ephemeral/user/fdp18/ephemeral/gaussian/"
 Entering Link 1 = /apps/gaussian/g09_e01/g09/l1.exe PID=    279890.
  
 Copyright (c) 1988,1990,1992,1993,1995,1998,2003,2009,2015,
            Gaussian, Inc.  All Rights Reserved.
  
 This is part of the Gaussian(R) 09 program.  It is based on
 the Gaussian(R) 03 system (copyright 2003, Gaussian, Inc.),
 the Gaussian(R) 98 system (copyright 1998, Gaussian, Inc.),
 the Gaussian(R) 94 system (copyright 1995, Gaussian, Inc.),
 the Gaussian 92(TM) system (copyright 1992, Gaussian, Inc.),
 the Gaussian 90(TM) system (copyright 1990, Gaussian, Inc.),
 the Gaussian 88(TM) system (copyright 1988, Gaussian, Inc.),
 the Gaussian 86(TM) system (copyright 1986, Carnegie Mellon
 University), and the Gaussian 82(TM) system (copyright 1983,
 Carnegie Mellon University). Gaussian is a federally registered
 trademark of Gaussian, Inc.
  
 This software contains proprietary and confidential information,
 including trade secrets, belonging to Gaussian, Inc.
  
 This software is provided under written license and may be
 used, copied, transmitted, or stored only in accord with that
 written license.
  
 The following legend is applicable only to US Government
 contracts under FAR:
  
                    RESTRICTED RIGHTS LEGEND
  
 Use, reproduction and disclosure by the US Government is
 subject to restrictions as set forth in subparagraphs (a)
 and (c) of the Commercial Computer Software - Restricted
 Rights clause in FAR 52.227-19.
  
 Gaussian, Inc.
 340 Quinnipiac St., Bldg. 40, Wallingford CT 06492
  
  
 ---------------------------------------------------------------
 Warning -- This program may not be used in any manner that
 competes with the business of Gaussian, Inc. or will provide
 assistance to any competitor of Gaussian, Inc.  The licensee
 of this program is prohibited from giving any competitor of
 Gaussian, Inc. access to this program.  By using this program,
 the user acknowledges that Gaussian, Inc. is engaged in the
 business of creating and licensing software in the field of
 computational chemistry and represents and warrants to the
 licensee that it is not a competitor of Gaussian, Inc. and that
 it will not use this program in any manner prohibited above.
 ---------------------------------------------------------------
  

 Cite this work as:
 Gaussian 09, Revision E.01,
 M. J. Frisch, G. W. Trucks, H. B. Schlegel, G. E. Scuseria, 
 M. A. Robb, J. R. Cheeseman, G. Scalmani, V. Barone, B. Mennucci, 
 G. A. Petersson, H. Nakatsuji, M. Caricato, X. Li, H. P. Hratchian, 
 A. F. Izmaylov, J. Bloino, G. Zheng, J. L. Sonnenberg, M. Hada, 
 M. Ehara, K. Toyota, R. Fukuda, J. Hasegawa, M. Ishida, T. Nakajima, 
 Y. Honda, O. Kitao, H. Nakai, T. Vreven, J. A. Montgomery, Jr., 
 J. E. Peralta, F. Ogliaro, M. Bearpark, J. J. Heyd, E. Brothers, 
 K. N. Kudin, V. N. Staroverov, T. Keith, R. Kobayashi, J. Normand, 
 K. Raghavachari, A. Rendell, J. C. Burant, S. S. Iyengar, J. Tomasi, 
 M. Cossi, N. Rega, J. M. Millam, M. Klene, J. E. Knox, J. B. Cross, 
 V. Bakken, C. Adamo, J. Jaramillo, R. Gomperts, R. E. Stratmann, 
 O. Yazyev, A. J. Austin, R. Cammi, C. Pomelli, J. W. Ochterski, 
 R. L. Martin, K. Morokuma, V. G. Zakrzewski, G. A. Voth, 
 P. Salvador, J. J. Dannenberg, S. Dapprich, A. D. Daniels, 
 O. Farkas, J. B. Foresman, J. V. Ortiz, J. Cioslowski, 
 and D. J. Fox, Gaussian, Inc., Wallingford CT, 2013.
 
 ******************************************
 Gaussian 09:  ES64L-G09RevE.01 30-Nov-2015
                26-Mar-2021 
 ******************************************
 %nprocshared=48
 Will use up to   48 processors via shared memory.
 %mem=80GB
 %chk=P3331_MP2.chk
 ----------------------------------------------------------------------
 # RMP2=(semidirect,full)/cc-pVTZ int=ultrafine symmetry=none scf=conve
 r=11 Density=current pop=(minimal,CHELPG,Dipole)
 ----------------------------------------------------------------------
 1/30=1,38=1/1;
 2/12=2,15=3,17=6,18=5,40=1/2;
 3/5=16,6=1,11=1,16=1,25=1,30=1,71=1,75=-5,116=1/1,2,3;
 4//1;
 5/5=2,6=11,38=5/2;
 8/6=4,10=90/1;
 9/15=1,16=-2/6;
 10/5=1,13=10,31=1/2;
 6/7=2,8=2,9=2,10=2,15=24,20=3,22=-1/1,2;
 99/5=1,9=1/99;
 -------------------
 Title Card Required
 -------------------
 Symbolic Z-matrix:
 Charge =  1 Multiplicity = 1
 P                    -0.51753   0.92241   2.19648 
 C                    -1.5786   -0.41953   1.57488 
 C                    -2.81723   0.05165   0.79565 
 C                     0.82158   0.19348   3.19057 
 C                     1.74743   1.21678   3.86833 
 C                    -1.49295   2.07866   3.20557 
 C                    -2.1553    1.43187   4.43236 
 C                     0.19198   1.82928   0.79751 
 H                    -1.87187  -1.01966   2.44174 
 H                    -0.94448  -1.05805   0.9508 
 H                    -2.5106    0.6715   -0.05226 
 H                    -3.4397    0.68036   1.43914 
 H                     1.38838  -0.46217   2.52112 
 H                     0.34768  -0.45282   3.93575 
 H                     1.1633    1.85556   4.53731 
 H                     2.19418   1.87197   3.11447 
 H                    -2.24357   2.52387   2.5455 
 H                    -0.82024   2.88786   3.50544 
 H                    -2.8116    0.61715   4.1115 
 H                    -1.38927   0.98566   5.07387 
 H                     0.78426   1.1522    0.17951 
 H                     0.83183   2.63342   1.16282 
 H                    -0.60625   2.261     0.19252 
 C                     2.85594   0.52305   4.6632 
 H                     3.4788   -0.09749   4.01409 
 H                     3.50253   1.25983   5.14262 
 H                     2.43957  -0.11687   5.44536 
 C                    -3.64042  -1.13493   0.28938 
 H                    -4.51828  -0.78713  -0.25755 
 H                    -3.05356  -1.76436  -0.38428 
 H                    -3.98685  -1.75743   1.11831 
 C                    -2.96297   2.45443   5.23436 
 H                    -3.75781   2.89404   4.62646 
 H                    -3.4272    1.98233   6.10174 
 H                    -2.32558   3.26563   5.59524 
 
                          Input orientation:                          
 ---------------------------------------------------------------------
 Center     Atomic      Atomic             Coordinates (Angstroms)
 Number     Number       Type             X           Y           Z
 ---------------------------------------------------------------------
      1         15           0       -0.517529    0.922409    2.196475
      2          6           0       -1.578602   -0.419529    1.574880
      3          6           0       -2.817233    0.051645    0.795652
      4          6           0        0.821579    0.193483    3.190565
      5          6           0        1.747433    1.216780    3.868326
      6          6           0       -1.492953    2.078663    3.205574
      7          6           0       -2.155299    1.431870    4.432364
      8          6           0        0.191976    1.829277    0.797515
      9          1           0       -1.871870   -1.019658    2.441736
     10          1           0       -0.944482   -1.058051    0.950805
     11          1           0       -2.510601    0.671502   -0.052261
     12          1           0       -3.439696    0.680362    1.439136
     13          1           0        1.388376   -0.462169    2.521122
     14          1           0        0.347678   -0.452818    3.935745
     15          1           0        1.163297    1.855562    4.537312
     16          1           0        2.194180    1.871973    3.114472
     17          1           0       -2.243571    2.523873    2.545495
     18          1           0       -0.820244    2.887856    3.505436
     19          1           0       -2.811597    0.617152    4.111503
     20          1           0       -1.389269    0.985655    5.073871
     21          1           0        0.784264    1.152199    0.179514
     22          1           0        0.831830    2.633420    1.162823
     23          1           0       -0.606247    2.260998    0.192522
     24          6           0        2.855944    0.523053    4.663200
     25          1           0        3.478799   -0.097488    4.014087
     26          1           0        3.502528    1.259829    5.142618
     27          1           0        2.439569   -0.116869    5.445358
     28          6           0       -3.640416   -1.134926    0.289379
     29          1           0       -4.518278   -0.787126   -0.257551
     30          1           0       -3.053565   -1.764359   -0.384275
     31          1           0       -3.986851   -1.757431    1.118308
     32          6           0       -2.962969    2.454426    5.234364
     33          1           0       -3.757808    2.894038    4.626464
     34          1           0       -3.427197    1.982329    6.101743
     35          1           0       -2.325578    3.265628    5.595240
 ---------------------------------------------------------------------
                    Distance matrix (angstroms):
                    1          2          3          4          5
     1  P    0.000000
     2  C    1.820180   0.000000
     3  C    2.830048   1.537338   0.000000
     4  C    1.820099   2.957549   4.358518   0.000000
     5  C    2.830511   4.358889   5.624504   1.537434   0.000000
     6  C    1.818421   2.984537   3.416174   2.985161   3.417921
     7  C    2.817984   3.453327   3.945738   3.455064   3.949141
     8  C    1.811877   2.965868   3.495042   2.966296   3.496352
     9  H    2.380340   1.094349   2.179678   3.047478   4.487334
    10  H    2.378278   1.095120   2.182360   3.114777   4.575281
    11  H    3.015311   2.169460   1.094167   4.674168   5.813707
    12  H    3.028400   2.166070   1.093991   4.632820   5.752827
    13  H    2.378009   3.114507   4.574757   1.095123   2.182373
    14  H    2.380104   3.047187   4.486795   1.094340   2.179774
    15  H    3.029104   4.633579   5.753152   2.166334   1.093983
    16  H    3.016249   4.674956   5.814188   2.169597   1.094147
    17  H    2.380277   3.169841   3.082685   3.904098   4.403009
    18  H    2.380755   3.903966   4.401703   3.170862   3.084987
    19  H    3.003874   3.004902   3.363732   3.771948   4.604720
    20  H    3.007214   3.775358   4.605933   3.010353   3.368331
    21  H    2.411556   3.162359   3.815970   3.160215   3.813030
    22  H    2.411797   3.911582   4.485090   3.172559   3.188251
    23  H    2.411539   3.168851   3.183310   3.911723   4.487955
    24  C    4.198159   5.485561   6.882230   2.532965   1.530320
    25  H    4.507166   5.624122   7.072524   2.797083   2.178572
    26  H    4.995445   6.431709   7.764999   3.483546   2.169339
    27  H    4.514396   5.587298   7.020123   2.792543   2.178233
    28  C    4.197864   2.532860   1.530325   5.485522   6.882463
    29  H    4.995073   3.483479   2.169408   6.431577   7.765156
    30  H    4.506714   2.796850   2.178521   5.624000   7.072580
    31  H    4.514442   2.792508   2.178273   5.587604   7.020723
    32  C    4.189990   4.854679   5.049431   4.859195   5.058232
    33  H    4.504616   5.004081   4.861995   5.506867   5.804795
    34  H    4.984046   5.447817   5.679278   5.452250   5.687795
    35  H    4.506808   5.504693   5.797193   5.012498   4.875390
                    6          7          8          9         10
     6  C    0.000000
     7  C    1.536898   0.000000
     8  C    2.949565   4.345084   0.000000
     9  H    3.213506   3.170634   3.883215   0.000000
    10  H    3.901766   4.448262   3.106718   1.756245   0.000000
    11  H    3.691774   4.562483   3.060472   3.080263   2.539729
    12  H    2.977475   3.342731   3.862736   2.520587   3.080039
    13  H    3.902097   4.449479   3.106914   3.308519   2.874578
    14  H    3.213949   3.172313   3.883386   2.734916   3.308452
    15  H    2.979759   3.347179   3.863967   4.676598   5.078869
    16  H    3.694045   4.566015   3.062504   5.034567   4.808086
    17  H    1.094232   2.181865   3.077303   3.564484   4.130478
    18  H    1.094188   2.182077   3.078639   4.184022   4.702314
    19  H    2.166920   1.094278   4.633920   2.519991   4.035150
    20  H    2.167014   1.094277   4.636729   3.343998   4.623229
    21  H    3.898858   5.177449   1.091405   4.109703   2.910096
    22  H    3.144074   4.588742   1.090646   4.721291   4.102096
    23  H    3.146105   4.589474   1.090670   4.174144   3.421328
    24  C    4.843294   5.098214   4.873035   5.446750   5.543014
    25  H    5.487043   5.852944   4.986177   5.652641   5.465510
    26  H    5.420098   5.704828   5.492171   6.432338   6.536036
    27  H    5.030081   4.953540   5.517391   5.331536   5.704264
    28  C    4.841791   5.094932   4.871543   2.788133   2.776951
    29  H    5.418356   5.701133   5.490467   3.787308   3.782267
    30  H    5.485558   5.850023   4.984414   3.152352   2.594136
    31  H    5.029098   4.950676   5.516338   2.601714   3.126212
    32  C    2.533403   1.530084   5.479975   4.588958   5.895817
    33  H    2.795234   2.177991   5.603157   4.862799   6.086401
    34  H    3.484017   2.169691   6.423136   4.982632   6.476106
    35  H    2.795112   2.178060   5.605297   5.339861   6.494028
                   11         12         13         14         15
    11  H    0.000000
    12  H    1.757145   0.000000
    13  H    4.807237   5.078027   0.000000
    14  H    5.033691   4.675613   1.756218   0.000000
    15  H    5.996975   5.671626   3.080188   2.521058   0.000000
    16  H    5.796921   5.997270   2.539607   3.080375   1.757118
    17  H    3.201706   2.460341   4.701923   4.184263   4.002590
    18  H    4.519595   4.000519   4.131530   3.565011   2.462688
    19  H    4.174982   2.745915   4.618876   3.340171   4.185064
    20  H    5.256739   4.184347   4.040797   2.526167   2.749586
    21  H    3.337803   4.432958   2.907621   4.108036   4.430439
    22  H    4.061699   4.704967   3.425987   4.177124   3.478808
    23  H    2.492585   3.475757   4.100798   4.720858   4.708808
    24  C    7.145447   7.074915   2.777214   2.787994   2.157888
    25  H    7.280072   7.423005   2.594572   3.152193   3.074039
    26  H    7.968100   7.889616   3.782480   3.787186   2.488633
    27  H    7.439726   7.158991   3.126563   2.601499   2.518710
    28  C    2.157865   2.158124   5.542746   5.446664   7.075564
    29  H    2.490082   2.489098   6.535686   6.432187   7.890172
    30  H    2.517630   3.074181   5.465150   5.652537   7.423461
    31  H    3.073965   2.518958   5.704267   5.331802   7.160121
    32  C    5.597486   4.216435   5.899357   4.593350   4.227362
    33  H    5.327819   3.893663   6.494598   5.341680   5.030274
    34  H    6.358473   4.840989   6.479673   4.987100   4.851407
    35  H    6.217555   5.019767   6.094270   4.871043   3.908932
                   16         17         18         19         20
    16  H    0.000000
    17  H    4.521321   0.000000
    18  H    3.204937   1.754945   0.000000
    19  H    5.256087   2.531920   3.080406   0.000000
    20  H    4.179223   3.080362   2.530246   1.756407   0.000000
    21  H    3.334654   4.080091   4.080283   5.355094   5.357865
    22  H    2.498946   3.373703   2.877832   5.102412   4.790063
    23  H    4.065898   2.878613   3.378483   4.787923   5.105604
    24  C    2.157795   5.873075   4.521843   5.695107   4.290044
    25  H    2.517604   6.463267   5.258590   6.331610   5.098473
    26  H    2.489954   6.431214   4.900734   6.429962   4.899957
    27  H    3.073880   6.108561   4.839219   5.467422   4.001694
    28  C    7.145985   4.519739   5.871896   4.285480   5.697007
    29  H    7.968591   4.898375   6.429699   4.896263   6.430981
    30  H    7.280314   5.256290   6.462250   5.093345   6.334337
    31  H    7.440591   4.837919   6.107739   3.997384   5.469775
    32  C    5.606191   2.784308   2.787171   2.158543   2.158606
    33  H    6.225503   2.600070   3.144205   2.518871   3.074423
    34  H    6.366777   3.786970   3.789063   2.490729   2.490589
    35  H    5.340851   3.139724   2.603080   3.074430   2.519281
                   21         22         23         24         25
    21  H    0.000000
    22  H    1.778532   0.000000
    23  H    1.778519   1.774331   0.000000
    24  C    4.979069   4.561066   5.915589   0.000000
    25  H    4.850380   4.753315   6.070784   1.092871   0.000000
    26  H    5.659765   4.985794   6.510594   1.091215   1.765348
    27  H    5.663892   5.337510   6.521008   1.092995   1.768874
    28  C    4.982049   5.913063   4.554982   8.005117   8.101417
    29  H    5.662947   6.507016   4.979720   8.961558   9.092620
    30  H    4.853154   6.068794   4.746110   8.101330   8.049586
    31  H    5.666641   6.519298   5.332292   8.036835   8.177829
    32  C    6.425656   5.568660   5.568817   6.157612   7.035462
    33  H    6.590887   5.755823   5.476579   7.025997   7.854471
    34  H    7.314255   6.554095   6.553954   6.608839   7.508444
    35  H    6.593011   5.478616   5.758016   5.936210   6.892125
                   26         27         28         29         30
    26  H    0.000000
    27  H    1.765455   0.000000
    28  C    8.961609   8.036590   0.000000
    29  H    9.883582   9.021311   1.091210   0.000000
    30  H    9.092558   8.177613   1.092882   1.765341   0.000000
    31  H    9.021626   7.919197   1.093002   1.765473   1.768849
    32  C    6.575571   5.986944   6.147784   6.564128   7.026767
    33  H    7.459862   6.938561   5.920864   6.163026   6.877800
    34  H    7.032996   6.265494   6.598963   7.021465   7.499714
    35  H    6.180204   5.845543   7.017537   7.449021   7.847633
                   31         32         33         34         35
    31  H    0.000000
    32  C    5.977457   0.000000
    33  H    5.830590   1.092964   0.000000
    34  H    6.255689   1.091206   1.765493   0.000000
    35  H    6.930647   1.092953   1.768584   1.765493   0.000000
 Symmetry turned off by external request.
 Stoichiometry    C10H24P
 Rotational constants (GHZ):      0.9448980      0.5552348      0.4211978
 Standard basis: CC-pVTZ (5D, 7F)
   670 basis functions,  1023 primitive gaussians,   749 cartesian basis functions
    49 alpha electrons       49 beta electrons
       nuclear repulsion energy       790.5329688240 Hartrees.
 NAtoms=   35 NActive=   35 NUniq=   35 SFac= 1.00D+00 NAtFMM=   60 NAOKFM=F Big=F
 Integral buffers will be    131072 words long.
 Raffenetti 1 integral format.
 Two-electron integral symmetry is turned off.
 One-electron integrals computed using PRISM.
 NBasis=   670 RedAO= T EigKep=  2.61D-04  NBF=   670
 NBsUse=   670 1.00D-06 EigRej= -1.00D+00 NBFU=   670
 ExpMin= 9.71D-02 ExpMax= 3.12D+05 ExpMxC= 9.87D+02 IAcc=3 IRadAn=         5 AccDes= 0.00D+00
 Harris functional with IExCor=  205 and IRadAn=       5 diagonalized for initial guess.
 HarFok:  IExCor=  205 AccDes= 0.00D+00 IRadAn=         5 IDoV= 1 UseB2=F ITyADJ=14
 ICtDFT=  3500011 ScaDFX=  1.000000  1.000000  1.000000  1.000000
 FoFCou: FMM=F IPFlag=           0 FMFlag=      100000 FMFlg1=           0
         NFxFlg=           0 DoJE=T BraDBF=F KetDBF=T FulRan=T
         wScrn=  0.000000 ICntrl=     500 IOpCl=  0 I1Cent=   200000004 NGrid=           0
         NMat0=    1 NMatS0=      1 NMatT0=    0 NMatD0=    1 NMtDS0=    0 NMtDT0=    0
 Symmetry not used in FoFCou.
 Requested convergence on RMS density matrix=1.00D-11 within 128 cycles.
 Requested convergence on MAX density matrix=1.00D-09.
 Requested convergence on             energy=1.00D-09.
 No special actions if energy rises.
 Integral accuracy reduced to 1.0D-05 until final iterations.
 Initial convergence to 1.0D-05 achieved.  Increase integral accuracy.
 SCF Done:  E(RHF) =  -733.388118147     A.U. after   16 cycles
            NFock= 16  Conv=0.75D-11     -V/T= 2.0008
 Range of M.O.s used for correlation:     1   670
 NBasis=   670 NAE=    49 NBE=    49 NFC=     0 NFV=     0
 NROrb=    670 NOA=    49 NOB=    49 NVA=   621 NVB=   621

 **** Warning!!: The largest alpha MO coefficient is  0.16116209D+02

 Disk-based method using ON**2 memory for 49 occupieds at a time.
 Estimated scratch disk usage= 34282245616 words.
 Actual    scratch disk usage= 31337057776 words.
 JobTyp=1 Pass  1:  I=   1 to  49 NPSUse= 48 ParTrn=T ParDer=T DoDerP=T.
 (rs|ai) integrals will be sorted in core.
 Spin components of T(2) and E(2):
     alpha-alpha T2 =       0.7525022186D-01 E2=     -0.2312521445D+00
     alpha-beta  T2 =       0.4704685930D+00 E2=     -0.1661704956D+01
     beta-beta   T2 =       0.7525022186D-01 E2=     -0.2312521445D+00
 ANorm=    0.1273172823D+01
 E2 =    -0.2124209245D+01 EUMP2 =    -0.73551232739239D+03
          Differentiating once with respect to electric field.
                with respect to dipole field.
          Electric field/nuclear overlap derivatives assumed to be zero.
          There are     1 degrees of freedom in the 1st order CPHF.  IDoFFX=0 NUNeed=     1.
 LinEq1:  Iter=  0 NonCon=     1 RMS=1.58D-03 Max=3.09D-02 NDo=     1
 AX will form     1 AO Fock derivatives at one time.
 LinEq1:  Iter=  1 NonCon=     1 RMS=4.18D-04 Max=8.65D-03 NDo=     1
 LinEq1:  Iter=  2 NonCon=     1 RMS=9.69D-05 Max=1.82D-03 NDo=     1
 LinEq1:  Iter=  3 NonCon=     1 RMS=2.20D-05 Max=4.63D-04 NDo=     1
 LinEq1:  Iter=  4 NonCon=     1 RMS=6.02D-06 Max=1.23D-04 NDo=     1
 LinEq1:  Iter=  5 NonCon=     1 RMS=1.29D-06 Max=5.07D-05 NDo=     1
 LinEq1:  Iter=  6 NonCon=     1 RMS=3.19D-07 Max=6.70D-06 NDo=     1
 LinEq1:  Iter=  7 NonCon=     1 RMS=9.48D-08 Max=2.75D-06 NDo=     1
 LinEq1:  Iter=  8 NonCon=     1 RMS=2.37D-08 Max=5.13D-07 NDo=     1
 LinEq1:  Iter=  9 NonCon=     1 RMS=5.53D-09 Max=1.87D-07 NDo=     1
 LinEq1:  Iter= 10 NonCon=     1 RMS=1.58D-09 Max=3.71D-08 NDo=     1
 LinEq1:  Iter= 11 NonCon=     1 RMS=4.56D-10 Max=9.83D-09 NDo=     1
 LinEq1:  Iter= 12 NonCon=     1 RMS=9.13D-11 Max=1.68D-09 NDo=     1
 LinEq1:  Iter= 13 NonCon=     0 RMS=2.71D-11 Max=5.78D-10 NDo=     1
 Linear equations converged to 1.000D-10 1.000D-09 after    13 iterations.
 End of Minotr F.D. properties file   721 does not exist.
 End of Minotr F.D. properties file   722 does not exist.
 End of Minotr F.D. properties file   788 does not exist.

 **********************************************************************

            Population analysis using the MP2 density.

 **********************************************************************

 Alpha  occ. eigenvalues --  -80.16725 -11.39541 -11.39539 -11.39521 -11.39469
 Alpha  occ. eigenvalues --  -11.37234 -11.37185 -11.37184 -11.33545 -11.33476
 Alpha  occ. eigenvalues --  -11.33474  -7.70622  -5.60143  -5.60131  -5.60123
 Alpha  occ. eigenvalues --   -1.25824  -1.20682  -1.20297  -1.15853  -1.09783
 Alpha  occ. eigenvalues --   -1.07526  -1.06989  -0.96751  -0.95802  -0.94629
 Alpha  occ. eigenvalues --   -0.88593  -0.79980  -0.79967  -0.78404  -0.75383
 Alpha  occ. eigenvalues --   -0.74772  -0.72731  -0.71655  -0.71065  -0.70950
 Alpha  occ. eigenvalues --   -0.70119  -0.68181  -0.67781  -0.67722  -0.66829
 Alpha  occ. eigenvalues --   -0.63572  -0.62854  -0.62225  -0.61672  -0.61584
 Alpha  occ. eigenvalues --   -0.61279  -0.61097  -0.59834  -0.58828
 Alpha virt. eigenvalues --   -0.00825   0.01285   0.01326   0.02186   0.03461
 Alpha virt. eigenvalues --    0.03492   0.04983   0.05608   0.05864   0.07185
 Alpha virt. eigenvalues --    0.07209   0.08143   0.08621   0.09024   0.09375
 Alpha virt. eigenvalues --    0.09511   0.10937   0.11434   0.12173   0.12280
 Alpha virt. eigenvalues --    0.12703   0.13638   0.14504   0.14813   0.14873
 Alpha virt. eigenvalues --    0.15330   0.16086   0.16564   0.17814   0.18495
 Alpha virt. eigenvalues --    0.20552   0.20753   0.22276   0.23399   0.24068
 Alpha virt. eigenvalues --    0.24634   0.24723   0.25094   0.27532   0.29476
 Alpha virt. eigenvalues --    0.30660   0.30931   0.31017   0.31745   0.32893
 Alpha virt. eigenvalues --    0.33551   0.33633   0.33827   0.37629   0.38096
 Alpha virt. eigenvalues --    0.38290   0.39791   0.39803   0.40401   0.42439
 Alpha virt. eigenvalues --    0.42694   0.44100   0.44254   0.44949   0.46110
 Alpha virt. eigenvalues --    0.46468   0.47736   0.47808   0.47886   0.49038
 Alpha virt. eigenvalues --    0.49144   0.49576   0.49802   0.50074   0.50900
 Alpha virt. eigenvalues --    0.51715   0.52629   0.53038   0.53367   0.53742
 Alpha virt. eigenvalues --    0.54073   0.54585   0.54769   0.55196   0.55515
 Alpha virt. eigenvalues --    0.56532   0.56602   0.56841   0.57457   0.58369
 Alpha virt. eigenvalues --    0.58426   0.58470   0.59598   0.60678   0.60907
 Alpha virt. eigenvalues --    0.61603   0.61973   0.63882   0.64613   0.67359
 Alpha virt. eigenvalues --    0.69267   0.70582   0.71673   0.72504   0.72555
 Alpha virt. eigenvalues --    0.75314   0.75674   0.76288   0.77348   0.78655
 Alpha virt. eigenvalues --    0.79695   0.80255   0.81250   0.81644   0.82371
 Alpha virt. eigenvalues --    0.85350   0.85744   0.87072   0.87105   0.88411
 Alpha virt. eigenvalues --    0.89948   0.90359   0.91273   0.93188   0.93825
 Alpha virt. eigenvalues --    0.94677   0.95567   0.96670   0.97001   0.97360
 Alpha virt. eigenvalues --    0.98580   0.98692   0.99649   1.01122   1.02285
 Alpha virt. eigenvalues --    1.04323   1.05313   1.05867   1.07714   1.08491
 Alpha virt. eigenvalues --    1.08954   1.09999   1.10830   1.11137   1.11180
 Alpha virt. eigenvalues --    1.12382   1.13403   1.14056   1.14064   1.14900
 Alpha virt. eigenvalues --    1.15323   1.16254   1.16543   1.17729   1.17791
 Alpha virt. eigenvalues --    1.18432   1.18782   1.19366   1.19950   1.21743
 Alpha virt. eigenvalues --    1.21938   1.22772   1.23109   1.23661   1.24255
 Alpha virt. eigenvalues --    1.24766   1.24868   1.25799   1.27184   1.27831
 Alpha virt. eigenvalues --    1.27925   1.28673   1.29139   1.30042   1.30648
 Alpha virt. eigenvalues --    1.31484   1.32774   1.32891   1.34757   1.34790
 Alpha virt. eigenvalues --    1.35870   1.36013   1.37397   1.37576   1.38657
 Alpha virt. eigenvalues --    1.39693   1.40501   1.40701   1.42051   1.42626
 Alpha virt. eigenvalues --    1.42856   1.43019   1.44613   1.45456   1.45514
 Alpha virt. eigenvalues --    1.46523   1.47147   1.47546   1.48291   1.48706
 Alpha virt. eigenvalues --    1.48848   1.49899   1.49951   1.50454   1.52926
 Alpha virt. eigenvalues --    1.53184   1.54222   1.54716   1.56995   1.58481
 Alpha virt. eigenvalues --    1.59285   1.59779   1.61901   1.62238   1.63203
 Alpha virt. eigenvalues --    1.63984   1.65254   1.65357   1.65843   1.67991
 Alpha virt. eigenvalues --    1.68132   1.68632   1.69013   1.70567   1.70795
 Alpha virt. eigenvalues --    1.72040   1.74247   1.74286   1.75999   1.76234
 Alpha virt. eigenvalues --    1.78786   1.78817   1.84253   1.85036   1.88155
 Alpha virt. eigenvalues --    1.91091   1.93842   1.95891   1.97264   1.97864
 Alpha virt. eigenvalues --    1.99111   1.99984   2.04019   2.05782   2.07037
 Alpha virt. eigenvalues --    2.13479   2.35197   2.41252   2.41624   2.43011
 Alpha virt. eigenvalues --    2.44379   2.44982   2.47336   2.47665   2.48116
 Alpha virt. eigenvalues --    2.49450   2.49681   2.51985   2.56545   2.57484
 Alpha virt. eigenvalues --    2.58249   2.59100   2.60741   2.61191   2.62479
 Alpha virt. eigenvalues --    2.63184   2.63990   2.64525   2.65025   2.65515
 Alpha virt. eigenvalues --    2.68581   2.70903   2.71142   2.71636   2.71846
 Alpha virt. eigenvalues --    2.74066   2.75842   2.76204   2.77498   2.77686
 Alpha virt. eigenvalues --    2.79235   2.80277   2.80930   2.82483   2.84084
 Alpha virt. eigenvalues --    2.85981   2.86218   2.86665   2.87196   2.88255
 Alpha virt. eigenvalues --    2.88538   2.89175   2.90513   2.91184   2.92274
 Alpha virt. eigenvalues --    2.92914   2.94742   2.96177   2.97143   2.98328
 Alpha virt. eigenvalues --    2.98557   2.98757   2.99495   3.00599   3.00925
 Alpha virt. eigenvalues --    3.02372   3.03012   3.04116   3.04413   3.05526
 Alpha virt. eigenvalues --    3.05995   3.06884   3.08351   3.09297   3.10056
 Alpha virt. eigenvalues --    3.10598   3.12573   3.12686   3.13879   3.14517
 Alpha virt. eigenvalues --    3.15957   3.16250   3.16711   3.16874   3.18938
 Alpha virt. eigenvalues --    3.20185   3.20739   3.21330   3.21886   3.22564
 Alpha virt. eigenvalues --    3.23754   3.23784   3.25878   3.26915   3.27121
 Alpha virt. eigenvalues --    3.27257   3.27457   3.28022   3.28210   3.28681
 Alpha virt. eigenvalues --    3.29104   3.29350   3.30092   3.30139   3.30533
 Alpha virt. eigenvalues --    3.30790   3.31295   3.32436   3.32990   3.33737
 Alpha virt. eigenvalues --    3.33772   3.34082   3.35125   3.36076   3.37615
 Alpha virt. eigenvalues --    3.38343   3.38376   3.38939   3.39220   3.40529
 Alpha virt. eigenvalues --    3.40616   3.41687   3.43174   3.43987   3.44666
 Alpha virt. eigenvalues --    3.45343   3.45502   3.46226   3.48418   3.48947
 Alpha virt. eigenvalues --    3.49848   3.51309   3.54043   3.54136   3.55794
 Alpha virt. eigenvalues --    3.55908   3.57022   3.57387   3.58125   3.58573
 Alpha virt. eigenvalues --    3.60610   3.61509   3.61910   3.63207   3.63701
 Alpha virt. eigenvalues --    3.64820   3.65090   3.65240   3.66078   3.66325
 Alpha virt. eigenvalues --    3.66691   3.67825   3.68630   3.69934   3.70823
 Alpha virt. eigenvalues --    3.71105   3.71401   3.71831   3.73243   3.73779
 Alpha virt. eigenvalues --    3.73804   3.75132   3.75835   3.77588   3.78136
 Alpha virt. eigenvalues --    3.79342   3.80110   3.80467   3.81380   3.82850
 Alpha virt. eigenvalues --    3.83722   3.84981   3.85088   3.88536   3.89808
 Alpha virt. eigenvalues --    3.91377   3.91731   3.92324   3.93535   3.93792
 Alpha virt. eigenvalues --    3.94300   3.95021   3.95130   3.97376   3.98387
 Alpha virt. eigenvalues --    3.98986   3.99703   4.00019   4.01240   4.01344
 Alpha virt. eigenvalues --    4.03012   4.03453   4.04180   4.05012   4.05507
 Alpha virt. eigenvalues --    4.06248   4.06320   4.07360   4.07426   4.07703
 Alpha virt. eigenvalues --    4.08401   4.09348   4.09783   4.10379   4.12571
 Alpha virt. eigenvalues --    4.12656   4.13445   4.13636   4.15728   4.16856
 Alpha virt. eigenvalues --    4.17540   4.17861   4.18453   4.19866   4.19962
 Alpha virt. eigenvalues --    4.20910   4.21922   4.22775   4.23363   4.23524
 Alpha virt. eigenvalues --    4.24302   4.25614   4.25967   4.26603   4.27757
 Alpha virt. eigenvalues --    4.28303   4.28443   4.29175   4.29348   4.30770
 Alpha virt. eigenvalues --    4.31849   4.32125   4.32875   4.33213   4.33419
 Alpha virt. eigenvalues --    4.33442   4.34316   4.34532   4.35384   4.35807
 Alpha virt. eigenvalues --    4.36830   4.38351   4.40181   4.40446   4.40586
 Alpha virt. eigenvalues --    4.40862   4.43568   4.44361   4.45125   4.45788
 Alpha virt. eigenvalues --    4.46825   4.47076   4.49438   4.49662   4.50325
 Alpha virt. eigenvalues --    4.50973   4.51526   4.53455   4.53489   4.55531
 Alpha virt. eigenvalues --    4.55644   4.58048   4.58156   4.60533   4.64660
 Alpha virt. eigenvalues --    4.64862   4.65655   4.67264   4.67304   4.70198
 Alpha virt. eigenvalues --    4.72405   4.73708   4.73783   4.79096   4.80928
 Alpha virt. eigenvalues --    4.81171   4.81740   4.82651   4.85523   4.86639
 Alpha virt. eigenvalues --    4.88951   4.91501   4.92089   4.94148   4.94826
 Alpha virt. eigenvalues --    4.96135   4.96571   4.98111   4.99471   5.00181
 Alpha virt. eigenvalues --    5.01037   5.02004   5.03545   5.04046   5.07489
 Alpha virt. eigenvalues --    5.07814   5.08165   5.09191   5.09793   5.10946
 Alpha virt. eigenvalues --    5.11338   5.12436   5.12822   5.15050   5.15196
 Alpha virt. eigenvalues --    5.15267   5.16006   5.17260   5.18338   5.18785
 Alpha virt. eigenvalues --    5.19938   5.20900   5.21236   5.26260   5.29158
 Alpha virt. eigenvalues --    5.29712   5.30093   5.31821   5.33839   5.34997
 Alpha virt. eigenvalues --    5.37584   5.39848   5.41611   5.41748   5.43185
 Alpha virt. eigenvalues --    5.44481   5.45045   5.45588   5.47182   5.47426
 Alpha virt. eigenvalues --    5.47631   5.50914   5.53069   5.53175   5.56789
 Alpha virt. eigenvalues --    5.58650   5.58687   5.59792   5.59944   5.60019
 Alpha virt. eigenvalues --    5.60390   5.61508   5.61596   5.62341   5.64747
 Alpha virt. eigenvalues --    5.65810   5.69131   5.70428   5.71340   5.72533
 Alpha virt. eigenvalues --    5.72956   5.73234   5.73882   5.74807   5.74849
 Alpha virt. eigenvalues --    5.76585   5.79178   5.80500   5.86080   5.87367
 Alpha virt. eigenvalues --    5.90698   6.11216   6.12009   6.17438   6.18127
 Alpha virt. eigenvalues --    6.18706   6.18756   6.19392   6.19595   6.22122
 Alpha virt. eigenvalues --    6.23176   6.26871   6.31283   6.31836   6.34844
 Alpha virt. eigenvalues --    6.65533  12.53152  12.78545  13.05452  13.23616
 Alpha virt. eigenvalues --   13.35482  13.39669  13.59947  13.99731  14.03281
 Alpha virt. eigenvalues --   14.08101
          Condensed to atoms (all electrons):
               1          2          3          4          5          6
     1  P   13.784726   0.291435  -0.040849   0.291416  -0.040836   0.277175
     2  C    0.291435   5.294923   0.240884  -0.026808   0.001110  -0.029540
     3  C   -0.040849   0.240884   5.227996   0.001112  -0.000124   0.002248
     4  C    0.291416  -0.026808   0.001112   5.294711   0.241009  -0.029570
     5  C   -0.040836   0.001110  -0.000124   0.241009   5.227647   0.002236
     6  C    0.277175  -0.029540   0.002248  -0.029570   0.002236   5.330418
     7  C   -0.043519   0.002372  -0.001992   0.002408  -0.001988   0.231238
     8  C    0.298547  -0.031662  -0.000226  -0.031675  -0.000172  -0.028434
     9  H   -0.020163   0.339598  -0.027495   0.000066   0.000033  -0.002318
    10  H   -0.022395   0.342976  -0.025777  -0.000369   0.000022   0.002695
    11  H    0.000677  -0.040412   0.365214   0.000155   0.000005  -0.001532
    12  H   -0.005409  -0.036152   0.365409  -0.000027   0.000004   0.002450
    13  H   -0.022384  -0.000369   0.000022   0.342994  -0.025805   0.002699
    14  H   -0.020180   0.000067   0.000033   0.339577  -0.027474  -0.002320
    15  H   -0.005396  -0.000028   0.000004  -0.036122   0.365385   0.002455
    16  H    0.000664   0.000156   0.000005  -0.040412   0.365236  -0.001528
    17  H   -0.020981  -0.004029  -0.000465   0.002528   0.000022   0.340952
    18  H   -0.020938   0.002527   0.000021  -0.004025  -0.000448   0.340930
    19  H   -0.002381   0.001211  -0.000655  -0.000861   0.000141  -0.038007
    20  H   -0.002430  -0.000846   0.000139   0.001217  -0.000643  -0.037839
    21  H   -0.023324  -0.001269   0.000005  -0.001270  -0.000001   0.003011
    22  H   -0.017804   0.002470   0.000040  -0.002827  -0.000379  -0.001067
    23  H   -0.017772  -0.002857  -0.000376   0.002470   0.000041  -0.001081
    24  C    0.001730  -0.000143   0.000002  -0.044466   0.271992  -0.000110
    25  H    0.000022  -0.000003   0.000000  -0.004497  -0.037151  -0.000003
    26  H   -0.000357   0.000005  -0.000000   0.006667  -0.030264   0.000014
    27  H    0.000216   0.000003   0.000000  -0.004675  -0.037354  -0.000028
    28  C    0.001732  -0.044476   0.271957  -0.000143   0.000002  -0.000110
    29  H   -0.000357   0.006668  -0.030259   0.000005  -0.000000   0.000014
    30  H    0.000022  -0.004505  -0.037153  -0.000003   0.000000  -0.000003
    31  H    0.000217  -0.004673  -0.037351   0.000003   0.000000  -0.000028
    32  C    0.002018  -0.000077  -0.000005  -0.000080  -0.000004  -0.044634
    33  H    0.000076  -0.000014   0.000018  -0.000004  -0.000005  -0.004701
    34  H   -0.000340   0.000010   0.000002   0.000010   0.000002   0.006578
    35  H    0.000083  -0.000004  -0.000005  -0.000013   0.000018  -0.004639
               7          8          9         10         11         12
     1  P   -0.043519   0.298547  -0.020163  -0.022395   0.000677  -0.005409
     2  C    0.002372  -0.031662   0.339598   0.342976  -0.040412  -0.036152
     3  C   -0.001992  -0.000226  -0.027495  -0.025777   0.365214   0.365409
     4  C    0.002408  -0.031675   0.000066  -0.000369   0.000155  -0.000027
     5  C   -0.001988  -0.000172   0.000033   0.000022   0.000005   0.000004
     6  C    0.231238  -0.028434  -0.002318   0.002695  -0.001532   0.002450
     7  C    5.234362   0.001364  -0.000369  -0.000002   0.000172  -0.000861
     8  C    0.001364   5.137496   0.002562  -0.002332  -0.000157   0.000056
     9  H   -0.000369   0.002562   0.541046  -0.015331   0.005394  -0.003548
    10  H   -0.000002  -0.002332  -0.015331   0.530072  -0.002696   0.005264
    11  H    0.000172  -0.000157   0.005394  -0.002696   0.578724  -0.028706
    12  H   -0.000861   0.000056  -0.003548   0.005264  -0.028706   0.581400
    13  H   -0.000005  -0.002352  -0.000037   0.001128   0.000001  -0.000004
    14  H   -0.000340   0.002566   0.001619  -0.000037  -0.000007   0.000002
    15  H   -0.000850   0.000053   0.000002  -0.000004  -0.000001  -0.000001
    16  H    0.000171  -0.000124  -0.000007   0.000001  -0.000001  -0.000001
    17  H   -0.025285  -0.000048   0.000303  -0.000147   0.000459  -0.001922
    18  H   -0.025217  -0.000049  -0.000131  -0.000073  -0.000080   0.000205
    19  H    0.364652   0.000065  -0.001385   0.000186  -0.000037   0.001505
    20  H    0.364594   0.000062   0.000312  -0.000069  -0.000001  -0.000045
    21  H   -0.000123   0.357254  -0.000013   0.000851  -0.000134   0.000016
    22  H   -0.000004   0.356847  -0.000085  -0.000056   0.000083  -0.000041
    23  H   -0.000005   0.356853  -0.000058  -0.000015   0.000265   0.000120
    24  C    0.000005  -0.000045   0.000002  -0.000000   0.000000   0.000000
    25  H   -0.000006   0.000013   0.000002  -0.000004   0.000000  -0.000000
    26  H    0.000001   0.000009   0.000000  -0.000000   0.000000  -0.000000
    27  H    0.000024  -0.000013  -0.000006   0.000002  -0.000000   0.000000
    28  C    0.000006  -0.000043  -0.002087  -0.002259  -0.028750  -0.029350
    29  H    0.000001   0.000009  -0.000001   0.000026  -0.003703  -0.003647
    30  H   -0.000006   0.000013  -0.000332   0.002936  -0.004709   0.006139
    31  H    0.000024  -0.000013   0.003007  -0.000283   0.006177  -0.004773
    32  C    0.270310  -0.000164   0.000028   0.000008  -0.000003   0.000009
    33  H   -0.037242  -0.000001   0.000016  -0.000001   0.000001   0.000011
    34  H   -0.030166   0.000005   0.000001  -0.000001   0.000000  -0.000008
    35  H   -0.037204  -0.000001  -0.000006   0.000001  -0.000000   0.000001
              13         14         15         16         17         18
     1  P   -0.022384  -0.020180  -0.005396   0.000664  -0.020981  -0.020938
     2  C   -0.000369   0.000067  -0.000028   0.000156  -0.004029   0.002527
     3  C    0.000022   0.000033   0.000004   0.000005  -0.000465   0.000021
     4  C    0.342994   0.339577  -0.036122  -0.040412   0.002528  -0.004025
     5  C   -0.025805  -0.027474   0.365385   0.365236   0.000022  -0.000448
     6  C    0.002699  -0.002320   0.002455  -0.001528   0.340952   0.340930
     7  C   -0.000005  -0.000340  -0.000850   0.000171  -0.025285  -0.025217
     8  C   -0.002352   0.002566   0.000053  -0.000124  -0.000048  -0.000049
     9  H   -0.000037   0.001619   0.000002  -0.000007   0.000303  -0.000131
    10  H    0.001128  -0.000037  -0.000004   0.000001  -0.000147  -0.000073
    11  H    0.000001  -0.000007  -0.000001  -0.000001   0.000459  -0.000080
    12  H   -0.000004   0.000002  -0.000001  -0.000001  -0.001922   0.000205
    13  H    0.530124  -0.015333   0.005264  -0.002697  -0.000073  -0.000147
    14  H   -0.015333   0.541041  -0.003537   0.005391  -0.000131   0.000303
    15  H    0.005264  -0.003537   0.581392  -0.028700   0.000205  -0.001914
    16  H   -0.002697   0.005391  -0.028700   0.578724  -0.000080   0.000457
    17  H   -0.000073  -0.000131   0.000205  -0.000080   0.530888  -0.016782
    18  H   -0.000147   0.000303  -0.001914   0.000457  -0.016782   0.530625
    19  H   -0.000070   0.000316  -0.000048  -0.000001  -0.003523   0.005390
    20  H    0.000184  -0.001376   0.001515  -0.000037   0.005391  -0.003570
    21  H    0.000857  -0.000012   0.000016  -0.000134  -0.000018  -0.000020
    22  H   -0.000014  -0.000060   0.000121   0.000243  -0.000134   0.001093
    23  H   -0.000056  -0.000084  -0.000041   0.000083   0.001087  -0.000131
    24  C   -0.002259  -0.002094  -0.029371  -0.028766   0.000008   0.000010
    25  H    0.002935  -0.000332   0.006140  -0.004707   0.000001  -0.000007
    26  H    0.000026  -0.000000  -0.003652  -0.003701  -0.000001  -0.000001
    27  H   -0.000283   0.003010  -0.004774   0.006177  -0.000001   0.000019
    28  C   -0.000000   0.000002   0.000000   0.000000   0.000011   0.000008
    29  H   -0.000000   0.000000  -0.000000   0.000000  -0.000001  -0.000001
    30  H   -0.000004   0.000002  -0.000000   0.000000  -0.000007   0.000001
    31  H    0.000002  -0.000006   0.000000  -0.000000   0.000019  -0.000001
    32  C    0.000008   0.000027   0.000009  -0.000003  -0.001753  -0.001722
    33  H    0.000001  -0.000006   0.000001  -0.000000   0.003075  -0.000282
    34  H   -0.000001   0.000001  -0.000007   0.000000   0.000025   0.000022
    35  H   -0.000001   0.000016   0.000007   0.000001  -0.000291   0.003046
              19         20         21         22         23         24
     1  P   -0.002381  -0.002430  -0.023324  -0.017804  -0.017772   0.001730
     2  C    0.001211  -0.000846  -0.001269   0.002470  -0.002857  -0.000143
     3  C   -0.000655   0.000139   0.000005   0.000040  -0.000376   0.000002
     4  C   -0.000861   0.001217  -0.001270  -0.002827   0.002470  -0.044466
     5  C    0.000141  -0.000643  -0.000001  -0.000379   0.000041   0.271992
     6  C   -0.038007  -0.037839   0.003011  -0.001067  -0.001081  -0.000110
     7  C    0.364652   0.364594  -0.000123  -0.000004  -0.000005   0.000005
     8  C    0.000065   0.000062   0.357254   0.356847   0.356853  -0.000045
     9  H   -0.001385   0.000312  -0.000013  -0.000085  -0.000058   0.000002
    10  H    0.000186  -0.000069   0.000851  -0.000056  -0.000015  -0.000000
    11  H   -0.000037  -0.000001  -0.000134   0.000083   0.000265   0.000000
    12  H    0.001505  -0.000045   0.000016  -0.000041   0.000120   0.000000
    13  H   -0.000070   0.000184   0.000857  -0.000014  -0.000056  -0.002259
    14  H    0.000316  -0.001376  -0.000012  -0.000060  -0.000084  -0.002094
    15  H   -0.000048   0.001515   0.000016   0.000121  -0.000041  -0.029371
    16  H   -0.000001  -0.000037  -0.000134   0.000243   0.000083  -0.028766
    17  H   -0.003523   0.005391  -0.000018  -0.000134   0.001087   0.000008
    18  H    0.005390  -0.003570  -0.000020   0.001093  -0.000131   0.000010
    19  H    0.580844  -0.029337   0.000000   0.000003  -0.000003   0.000002
    20  H   -0.029337   0.580468   0.000001  -0.000003   0.000003  -0.000035
    21  H    0.000000   0.000001   0.514030  -0.014297  -0.014281  -0.000011
    22  H    0.000003  -0.000003  -0.014297   0.510446  -0.017537  -0.000019
    23  H   -0.000003   0.000003  -0.014281  -0.017537   0.510378   0.000008
    24  C    0.000002  -0.000035  -0.000011  -0.000019   0.000008   5.073728
    25  H   -0.000000   0.000002   0.000002   0.000019  -0.000001   0.377263
    26  H    0.000000  -0.000007   0.000000   0.000003  -0.000001   0.370938
    27  H    0.000001  -0.000013   0.000001  -0.000003   0.000000   0.376660
    28  C   -0.000035   0.000002  -0.000011   0.000008  -0.000019  -0.000000
    29  H   -0.000007   0.000000   0.000000  -0.000001   0.000004   0.000000
    30  H    0.000002  -0.000000   0.000002  -0.000001   0.000019  -0.000000
    31  H   -0.000013   0.000001   0.000001   0.000000  -0.000004   0.000000
    32  C   -0.029060  -0.028937   0.000005  -0.000004  -0.000004  -0.000001
    33  H   -0.004805   0.006203   0.000000   0.000001  -0.000002  -0.000000
    34  H   -0.003627  -0.003629  -0.000000   0.000000   0.000000   0.000000
    35  H    0.006208  -0.004789   0.000000  -0.000002   0.000001  -0.000002
              25         26         27         28         29         30
     1  P    0.000022  -0.000357   0.000216   0.001732  -0.000357   0.000022
     2  C   -0.000003   0.000005   0.000003  -0.044476   0.006668  -0.004505
     3  C    0.000000  -0.000000   0.000000   0.271957  -0.030259  -0.037153
     4  C   -0.004497   0.006667  -0.004675  -0.000143   0.000005  -0.000003
     5  C   -0.037151  -0.030264  -0.037354   0.000002  -0.000000   0.000000
     6  C   -0.000003   0.000014  -0.000028  -0.000110   0.000014  -0.000003
     7  C   -0.000006   0.000001   0.000024   0.000006   0.000001  -0.000006
     8  C    0.000013   0.000009  -0.000013  -0.000043   0.000009   0.000013
     9  H    0.000002   0.000000  -0.000006  -0.002087  -0.000001  -0.000332
    10  H   -0.000004  -0.000000   0.000002  -0.002259   0.000026   0.002936
    11  H    0.000000   0.000000  -0.000000  -0.028750  -0.003703  -0.004709
    12  H   -0.000000  -0.000000   0.000000  -0.029350  -0.003647   0.006139
    13  H    0.002935   0.000026  -0.000283  -0.000000  -0.000000  -0.000004
    14  H   -0.000332  -0.000000   0.003010   0.000002   0.000000   0.000002
    15  H    0.006140  -0.003652  -0.004774   0.000000  -0.000000  -0.000000
    16  H   -0.004707  -0.003701   0.006177   0.000000   0.000000   0.000000
    17  H    0.000001  -0.000001  -0.000001   0.000011  -0.000001  -0.000007
    18  H   -0.000007  -0.000001   0.000019   0.000008  -0.000001   0.000001
    19  H   -0.000000   0.000000   0.000001  -0.000035  -0.000007   0.000002
    20  H    0.000002  -0.000007  -0.000013   0.000002   0.000000  -0.000000
    21  H    0.000002   0.000000   0.000001  -0.000011   0.000000   0.000002
    22  H    0.000019   0.000003  -0.000003   0.000008  -0.000001  -0.000001
    23  H   -0.000001  -0.000001   0.000000  -0.000019   0.000004   0.000019
    24  C    0.377263   0.370938   0.376660  -0.000000   0.000000  -0.000000
    25  H    0.572791  -0.022093  -0.027157  -0.000000   0.000000  -0.000000
    26  H   -0.022093   0.547791  -0.022369   0.000000  -0.000000   0.000000
    27  H   -0.027157  -0.022369   0.575315   0.000000   0.000000   0.000000
    28  C   -0.000000   0.000000   0.000000   5.073714   0.370931   0.377273
    29  H    0.000000  -0.000000   0.000000   0.370931   0.547778  -0.022097
    30  H   -0.000000   0.000000   0.000000   0.377273  -0.022097   0.572800
    31  H    0.000000   0.000000  -0.000000   0.376662  -0.022364  -0.027159
    32  C    0.000000   0.000000  -0.000002  -0.000001   0.000000   0.000000
    33  H   -0.000000  -0.000000   0.000000  -0.000002   0.000000   0.000000
    34  H   -0.000000  -0.000000   0.000000   0.000000  -0.000000  -0.000000
    35  H    0.000000   0.000000  -0.000000  -0.000000  -0.000000  -0.000000
              31         32         33         34         35
     1  P    0.000217   0.002018   0.000076  -0.000340   0.000083
     2  C   -0.004673  -0.000077  -0.000014   0.000010  -0.000004
     3  C   -0.037351  -0.000005   0.000018   0.000002  -0.000005
     4  C    0.000003  -0.000080  -0.000004   0.000010  -0.000013
     5  C    0.000000  -0.000004  -0.000005   0.000002   0.000018
     6  C   -0.000028  -0.044634  -0.004701   0.006578  -0.004639
     7  C    0.000024   0.270310  -0.037242  -0.030166  -0.037204
     8  C   -0.000013  -0.000164  -0.000001   0.000005  -0.000001
     9  H    0.003007   0.000028   0.000016   0.000001  -0.000006
    10  H   -0.000283   0.000008  -0.000001  -0.000001   0.000001
    11  H    0.006177  -0.000003   0.000001   0.000000  -0.000000
    12  H   -0.004773   0.000009   0.000011  -0.000008   0.000001
    13  H    0.000002   0.000008   0.000001  -0.000001  -0.000001
    14  H   -0.000006   0.000027  -0.000006   0.000001   0.000016
    15  H    0.000000   0.000009   0.000001  -0.000007   0.000007
    16  H   -0.000000  -0.000003  -0.000000   0.000000   0.000001
    17  H    0.000019  -0.001753   0.003075   0.000025  -0.000291
    18  H   -0.000001  -0.001722  -0.000282   0.000022   0.003046
    19  H   -0.000013  -0.029060  -0.004805  -0.003627   0.006208
    20  H    0.000001  -0.028937   0.006203  -0.003629  -0.004789
    21  H    0.000001   0.000005   0.000000  -0.000000   0.000000
    22  H    0.000000  -0.000004   0.000001   0.000000  -0.000002
    23  H   -0.000004  -0.000004  -0.000002   0.000000   0.000001
    24  C    0.000000  -0.000001  -0.000000   0.000000  -0.000002
    25  H    0.000000   0.000000  -0.000000  -0.000000   0.000000
    26  H    0.000000   0.000000  -0.000000  -0.000000   0.000000
    27  H   -0.000000  -0.000002   0.000000   0.000000  -0.000000
    28  C    0.376662  -0.000001  -0.000002   0.000000  -0.000000
    29  H   -0.022364   0.000000   0.000000  -0.000000  -0.000000
    30  H   -0.027159   0.000000   0.000000  -0.000000  -0.000000
    31  H    0.575289  -0.000002  -0.000000   0.000000   0.000000
    32  C   -0.000002   5.076154   0.376930   0.370707   0.376850
    33  H   -0.000000   0.376930   0.574102  -0.022296  -0.027173
    34  H    0.000000   0.370707  -0.022296   0.547899  -0.022266
    35  H    0.000000   0.376850  -0.027173  -0.022266   0.573969
 Mulliken charges:
               1
     1  P    0.377056
     2  C   -0.298547
     3  C   -0.272380
     4  C   -0.298499
     5  C   -0.272258
     6  C   -0.317623
     7  C   -0.266523
     8  C   -0.416260
     9  H    0.179380
    10  H    0.185684
    11  H    0.153601
    12  H    0.151901
    13  H    0.185649
    14  H    0.179354
    15  H    0.151874
    16  H    0.153589
    17  H    0.190700
    18  H    0.190881
    19  H    0.153328
    20  H    0.153513
    21  H    0.178865
    22  H    0.182959
    23  H    0.182995
    24  C   -0.365028
    25  H    0.136771
    26  H    0.156991
    27  H    0.135250
    28  C   -0.365023
    29  H    0.157001
    30  H    0.136769
    31  H    0.135265
    32  C   -0.366607
    33  H    0.136098
    34  H    0.157077
    35  H    0.136195
 Sum of Mulliken charges =   1.00000
 Mulliken charges with hydrogens summed into heavy atoms:
               1
     1  P    0.377056
     2  C    0.066517
     3  C    0.033121
     4  C    0.066504
     5  C    0.033205
     6  C    0.063958
     7  C    0.040318
     8  C    0.128559
    24  C    0.063984
    28  C    0.064013
    32  C    0.062764
 Electronic spatial extent (au):  <R**2>=           6095.7539
 Charge=              1.0000 electrons
 Dipole moment (field-independent basis, Debye):
    X=             -3.1447    Y=              4.3510    Z=             11.5553  Tot=             12.7415
 Quadrupole moment (field-independent basis, Debye-Ang):
   XX=            -59.6381   YY=            -67.1595   ZZ=            -36.7320
   XY=             -1.6984   XZ=             -4.9584   YZ=             13.0957
 Traceless Quadrupole moment (field-independent basis, Debye-Ang):
   XX=             -5.1282   YY=            -12.6497   ZZ=             17.7779
   XY=             -1.6984   XZ=             -4.9584   YZ=             13.0957
 Octapole moment (field-independent basis, Debye-Ang**2):
  XXX=            168.0283  YYY=           -174.1933  ZZZ=           -466.1732  XYY=             57.1250
  XXY=            -54.1668  XXZ=           -164.0378  XZZ=             46.4713  YZZ=            -13.8158
  YYZ=           -183.6269  XYZ=            -11.6640
 Hexadecapole moment (field-independent basis, Debye-Ang**3):
 XXXX=          -2144.3797 YYYY=           -973.5685 ZZZZ=          -4119.3304 XXXY=            103.2343
 XXXZ=            259.5949 YYYX=             95.6312 YYYZ=           -698.5656 ZZZX=            183.6655
 ZZZY=           -534.2201 XXYY=           -517.3917 XXZZ=           -984.6847 YYZZ=           -872.1313
 XXYZ=           -188.3434 YYXZ=             62.2371 ZZXY=            -21.2162
 N-N= 7.905329688240D+02 E-N=-3.289241050159D+03  KE= 7.340993794383D+02
 Breneman (CHELPG) radii used.
 Generate Potential Derived Charges using the Breneman model, NDens= 1.
 Grid spacing= 0.300 Box extension= 2.800
 NStep X,Y,Z=   47     36     42   Total possible points=       71064
 Number of Points to Fit=   19007

 **********************************************************************

          Electrostatic Properties Using The MP2 Density

 **********************************************************************

       Atomic Center    1 is at  -0.517529  0.922409  2.196475
       Atomic Center    2 is at  -1.578602 -0.419529  1.574880
       Atomic Center    3 is at  -2.817233  0.051645  0.795652
       Atomic Center    4 is at   0.821579  0.193483  3.190565
       Atomic Center    5 is at   1.747433  1.216780  3.868326
       Atomic Center    6 is at  -1.492953  2.078663  3.205574
       Atomic Center    7 is at  -2.155299  1.431870  4.432364
       Atomic Center    8 is at   0.191976  1.829277  0.797515
       Atomic Center    9 is at  -1.871870 -1.019658  2.441736
       Atomic Center   10 is at  -0.944482 -1.058051  0.950805
       Atomic Center   11 is at  -2.510601  0.671502 -0.052261
       Atomic Center   12 is at  -3.439696  0.680362  1.439136
       Atomic Center   13 is at   1.388376 -0.462169  2.521122
       Atomic Center   14 is at   0.347678 -0.452818  3.935745
       Atomic Center   15 is at   1.163297  1.855562  4.537312
       Atomic Center   16 is at   2.194180  1.871973  3.114472
       Atomic Center   17 is at  -2.243571  2.523873  2.545495
       Atomic Center   18 is at  -0.820244  2.887856  3.505436
       Atomic Center   19 is at  -2.811597  0.617152  4.111503
       Atomic Center   20 is at  -1.389269  0.985655  5.073871
       Atomic Center   21 is at   0.784264  1.152199  0.179514
       Atomic Center   22 is at   0.831830  2.633420  1.162823
       Atomic Center   23 is at  -0.606247  2.260998  0.192522
       Atomic Center   24 is at   2.855944  0.523053  4.663200
       Atomic Center   25 is at   3.478799 -0.097488  4.014087
       Atomic Center   26 is at   3.502528  1.259829  5.142618
       Atomic Center   27 is at   2.439569 -0.116869  5.445358
       Atomic Center   28 is at  -3.640416 -1.134926  0.289379
       Atomic Center   29 is at  -4.518278 -0.787126 -0.257551
       Atomic Center   30 is at  -3.053565 -1.764359 -0.384275
       Atomic Center   31 is at  -3.986851 -1.757431  1.118308
       Atomic Center   32 is at  -2.962969  2.454426  5.234364
       Atomic Center   33 is at  -3.757808  2.894038  4.626464
       Atomic Center   34 is at  -3.427197  1.982329  6.101743
       Atomic Center   35 is at  -2.325578  3.265628  5.595240
   19007 points will be used for fitting atomic charges
 Fitting point charges to electrostatic potential
 The dipole moment will be constrained to the correct value
 Charges from ESP fit, RMS=   0.00167 RRMS=   0.01533:
 ESP charges:
               1
     1  P    0.366457
     2  C   -0.177031
     3  C    0.190754
     4  C   -0.191328
     5  C    0.190281
     6  C   -0.070552
     7  C    0.141447
     8  C   -0.385434
     9  H    0.074943
    10  H    0.101602
    11  H   -0.001698
    12  H    0.000943
    13  H    0.105510
    14  H    0.079987
    15  H    0.002478
    16  H   -0.001209
    17  H    0.057196
    18  H    0.058243
    19  H    0.010246
    20  H    0.010197
    21  H    0.170778
    22  H    0.153767
    23  H    0.152279
    24  C   -0.284532
    25  H    0.086041
    26  H    0.095148
    27  H    0.089387
    28  C   -0.285024
    29  H    0.095665
    30  H    0.085318
    31  H    0.089338
    32  C   -0.283453
    33  H    0.088384
    34  H    0.095748
    35  H    0.088125
 Sum of ESP charges =   1.00000
 ESP charges with hydrogens summed into heavy atoms:
               1
     1  P    0.366457
     2  C   -0.000486
     3  C    0.189998
     4  C   -0.005832
     5  C    0.191549
     6  C    0.044887
     7  C    0.161891
     8  C    0.091391
    24  C   -0.013957
    28  C   -0.014702
    32  C   -0.011196
 Charge=   1.00000 Dipole=    -3.1447     4.3510    11.5553 Tot=    12.7415
 -----------------------------------------------------------------

              Electrostatic Properties (Atomic Units)

 -----------------------------------------------------------------
    Center     Electric         -------- Electric Field --------
               Potential          X             Y             Z
 -----------------------------------------------------------------
    1 Atom    -53.915274
    2 Atom    -14.578995
    3 Atom    -14.600916
    4 Atom    -14.578979
    5 Atom    -14.600929
    6 Atom    -14.579214
    7 Atom    -14.600212
    8 Atom    -14.582248
    9 Atom     -0.931932
   10 Atom     -0.930954
   11 Atom     -0.974552
   12 Atom     -0.974820
   13 Atom     -0.930939
   14 Atom     -0.931922
   15 Atom     -0.974845
   16 Atom     -0.974586
   17 Atom     -0.931397
   18 Atom     -0.931403
   19 Atom     -0.973770
   20 Atom     -0.973791
   21 Atom     -0.921176
   22 Atom     -0.921429
   23 Atom     -0.921415
   24 Atom    -14.641460
   25 Atom     -0.997477
   26 Atom     -0.998350
   27 Atom     -0.997285
   28 Atom    -14.641441
   29 Atom     -0.998338
   30 Atom     -0.997458
   31 Atom     -0.997267
   32 Atom    -14.640647
   33 Atom     -0.996507
   34 Atom     -0.997557
   35 Atom     -0.996516
 -----------------------------------------------------------------
 1\1\GINC-CX3-7-20\SP\RMP2-Full\CC-pVTZ\C10H24P1\FDP18\26-Mar-2021\0\\#
  RMP2=(semidirect,full)/cc-pVTZ int=ultrafine symmetry=none scf=conver
 =11 Density=current pop=(minimal,CHELPG,Dipole)\\Title Card Required\\
 1,1\P,0,-0.5175294138,0.922409406,2.1964753821\C,0,-1.5786024742,-0.41
 95294419,1.5748804169\C,0,-2.817233255,0.051645447,0.7956520582\C,0,0.
 8215790308,0.1934831625,3.1905653595\C,0,1.7474329747,1.2167799763,3.8
 683262937\C,0,-1.4929528764,2.0786627964,3.2055743262\C,0,-2.155298696
 8,1.4318697803,4.4323635848\C,0,0.1919764065,1.829276563,0.7975147918\
 H,0,-1.8718697411,-1.0196584574,2.4417360515\H,0,-0.9444821,-1.0580508
 34,0.9508047273\H,0,-2.5106011385,0.6715017679,-0.0522605193\H,0,-3.43
 96962974,0.6803622784,1.4391359478\H,0,1.3883762606,-0.4621687728,2.52
 11216012\H,0,0.3476780015,-0.4528176154,3.9357454702\H,0,1.1632971385,
 1.8555618394,4.5373121947\H,0,2.1941797195,1.8719730029,3.1144720909\H
 ,0,-2.2435711297,2.523873145,2.5454950423\H,0,-0.8202435329,2.88785570
 74,3.5054360575\H,0,-2.8115969901,0.6171517037,4.1115026375\H,0,-1.389
 2686746,0.9856554261,5.0738712598\H,0,0.7842643736,1.1521987176,0.1795
 140439\H,0,0.8318297922,2.6334199368,1.1628234548\H,0,-0.6062474984,2.
 2609984542,0.1925217014\C,0,2.8559438344,0.5230526186,4.6632003462\H,0
 ,3.4787994634,-0.0974876816,4.0140865774\H,0,3.502528393,1.2598285256,
 5.1426176355\H,0,2.4395687578,-0.1168689382,5.4453579872\C,0,-3.640416
 3756,-1.1349256905,0.2893793851\H,0,-4.5182780918,-0.7871261558,-0.257
 5514474\H,0,-3.0535646457,-1.7643592556,-0.3842751879\H,0,-3.986851290
 7,-1.7574313337,1.118307913\C,0,-2.9629691223,2.4544262167,5.234363694
 \H,0,-3.7578079589,2.8940378212,4.6264638522\H,0,-3.4271972937,1.98232
 90345,6.1017429912\H,0,-2.3255781287,3.2656278995,5.5952400085\\Versio
 n=ES64L-G09RevE.01\HF=-733.3881181\MP2=-735.5123274\RMSD=7.453e-12\Dip
 ole=0.357069,0.1234725,-0.5754988\Quadrupole=-3.812696,-9.4047111,13.2
 174071,-1.2627552,-3.6864175,9.7363646\PG=Unknown\\@


 ONE BIG VICE IN A MAN IS APT TO KEEP OUT MANY SMALLER ONES.

                           -- BRET HARTE
 Job cpu time:       1 days  8 hours  2 minutes 12.1 seconds.
 File lengths (MBytes):  RWF= 239371 Int=      0 D2E=      0 Chk=     36 Scr=      2
 Normal termination of Gaussian 09 at Fri Mar 26 18:52:36 2021.
