 Entering Gaussian System, Link 0=g09
 Initial command:
 /apps/gaussian/g09_e01/g09/l1.exe "/rds/general/user/fdp18/home/gaussian/padua/forcefield_phosphonium/Gau-763714.inp" -scrdir="/rds/general/user/fdp18/home/gaussian/padua/forcefield_phosphonium/"
 Entering Link 1 = /apps/gaussian/g09_e01/g09/l1.exe PID=    763715.
  
 Copyright (c) 1988,1990,1992,1993,1995,1998,2003,2009,2015,
            Gaussian, Inc.  All Rights Reserved.
  
 This is part of the Gaussian(R) 09 program.  It is based on
 the Gaussian(R) 03 system (copyright 2003, Gaussian, Inc.),
 the Gaussian(R) 98 system (copyright 1998, Gaussian, Inc.),
 the Gaussian(R) 94 system (copyright 1995, Gaussian, Inc.),
 the Gaussian 92(TM) system (copyright 1992, Gaussian, Inc.),
 the Gaussian 90(TM) system (copyright 1990, Gaussian, Inc.),
 the Gaussian 88(TM) system (copyright 1988, Gaussian, Inc.),
 the Gaussian 86(TM) system (copyright 1986, Carnegie Mellon
 University), and the Gaussian 82(TM) system (copyright 1983,
 Carnegie Mellon University). Gaussian is a federally registered
 trademark of Gaussian, Inc.
  
 This software contains proprietary and confidential information,
 including trade secrets, belonging to Gaussian, Inc.
  
 This software is provided under written license and may be
 used, copied, transmitted, or stored only in accord with that
 written license.
  
 The following legend is applicable only to US Government
 contracts under FAR:
  
                    RESTRICTED RIGHTS LEGEND
  
 Use, reproduction and disclosure by the US Government is
 subject to restrictions as set forth in subparagraphs (a)
 and (c) of the Commercial Computer Software - Restricted
 Rights clause in FAR 52.227-19.
  
 Gaussian, Inc.
 340 Quinnipiac St., Bldg. 40, Wallingford CT 06492
  
  
 ---------------------------------------------------------------
 Warning -- This program may not be used in any manner that
 competes with the business of Gaussian, Inc. or will provide
 assistance to any competitor of Gaussian, Inc.  The licensee
 of this program is prohibited from giving any competitor of
 Gaussian, Inc. access to this program.  By using this program,
 the user acknowledges that Gaussian, Inc. is engaged in the
 business of creating and licensing software in the field of
 computational chemistry and represents and warrants to the
 licensee that it is not a competitor of Gaussian, Inc. and that
 it will not use this program in any manner prohibited above.
 ---------------------------------------------------------------
  

 Cite this work as:
 Gaussian 09, Revision E.01,
 M. J. Frisch, G. W. Trucks, H. B. Schlegel, G. E. Scuseria, 
 M. A. Robb, J. R. Cheeseman, G. Scalmani, V. Barone, B. Mennucci, 
 G. A. Petersson, H. Nakatsuji, M. Caricato, X. Li, H. P. Hratchian, 
 A. F. Izmaylov, J. Bloino, G. Zheng, J. L. Sonnenberg, M. Hada, 
 M. Ehara, K. Toyota, R. Fukuda, J. Hasegawa, M. Ishida, T. Nakajima, 
 Y. Honda, O. Kitao, H. Nakai, T. Vreven, J. A. Montgomery, Jr., 
 J. E. Peralta, F. Ogliaro, M. Bearpark, J. J. Heyd, E. Brothers, 
 K. N. Kudin, V. N. Staroverov, T. Keith, R. Kobayashi, J. Normand, 
 K. Raghavachari, A. Rendell, J. C. Burant, S. S. Iyengar, J. Tomasi, 
 M. Cossi, N. Rega, J. M. Millam, M. Klene, J. E. Knox, J. B. Cross, 
 V. Bakken, C. Adamo, J. Jaramillo, R. Gomperts, R. E. Stratmann, 
 O. Yazyev, A. J. Austin, R. Cammi, C. Pomelli, J. W. Ochterski, 
 R. L. Martin, K. Morokuma, V. G. Zakrzewski, G. A. Voth, 
 P. Salvador, J. J. Dannenberg, S. Dapprich, A. D. Daniels, 
 O. Farkas, J. B. Foresman, J. V. Ortiz, J. Cioslowski, 
 and D. J. Fox, Gaussian, Inc., Wallingford CT, 2013.
 
 ******************************************
 Gaussian 09:  ES64L-G09RevE.01 30-Nov-2015
                26-Mar-2021 
 ******************************************
 %nprocshared=24
 Will use up to   24 processors via shared memory.
 %mem=60GB
 %chk=P3331.chk
 ----------------------------------------------------------------------
 # opt=(maxcycles=400,verytight) freq EmpiricalDispersion=GD3BJ rb3lyp/
 6-311+g(d,p) int=ultrafine symmetry=none scf=(conver=10) pop=(minimal,
 CHELPG,Dipole)
 ----------------------------------------------------------------------
 1/6=400,7=1,14=-1,18=20,19=15,26=4,38=1/1,3;
 2/9=110,12=2,15=3,17=6,18=5,40=1/2;
 3/5=4,6=6,7=111,11=2,16=1,25=1,30=1,71=1,74=-5,75=-5,116=1,124=41/1,2,3;
 4//1;
 5/5=2,6=10,38=5/2;
 6/7=2,8=2,9=2,10=2,15=24,20=3,28=1/1,2;
 7/30=1/1,2,3,16;
 1/6=400,7=1,14=-1,18=20,19=15,26=4/3(2);
 2/9=110,15=3/2;
 99//99;
 2/9=110,15=3/2;
 3/5=4,6=6,7=111,11=2,16=1,25=1,30=1,71=1,74=-5,75=-5,116=1,124=41/1,2,3;
 4/5=5,16=3,69=1/1;
 5/5=2,6=10,38=5/2;
 7/30=1/1,2,3,16;
 1/6=400,7=1,14=-1,18=20,19=15,26=4/3(-5);
 2/9=110,15=3/2;
 6/7=2,8=2,9=2,10=2,15=24,19=2,20=3,28=1/1,2;
 99/9=1/99;
 -------------------
 Title Card Required
 -------------------
 Symbolic Z-matrix:
 Charge =  1 Multiplicity = 1
 P                    -0.51753   0.92241   2.19648 
 C                    -1.5786   -0.41953   1.57488 
 C                    -2.81723   0.05165   0.79565 
 C                     0.82158   0.19348   3.19057 
 C                     1.74743   1.21678   3.86833 
 C                    -1.49295   2.07866   3.20557 
 C                    -2.1553    1.43187   4.43236 
 C                     0.19198   1.82928   0.79751 
 H                    -1.87187  -1.01966   2.44174 
 H                    -0.94448  -1.05805   0.9508 
 H                    -2.5106    0.6715   -0.05226 
 H                    -3.4397    0.68036   1.43914 
 H                     1.38838  -0.46217   2.52112 
 H                     0.34768  -0.45282   3.93575 
 H                     1.1633    1.85556   4.53731 
 H                     2.19418   1.87197   3.11447 
 H                    -2.24357   2.52387   2.5455 
 H                    -0.82024   2.88786   3.50544 
 H                    -2.8116    0.61715   4.1115 
 H                    -1.38927   0.98566   5.07387 
 H                     0.78426   1.1522    0.17951 
 H                     0.83183   2.63342   1.16282 
 H                    -0.60625   2.261     0.19252 
 C                     2.85594   0.52305   4.6632 
 H                     3.4788   -0.09749   4.01409 
 H                     3.50253   1.25983   5.14262 
 H                     2.43957  -0.11687   5.44536 
 C                    -3.64042  -1.13493   0.28938 
 H                    -4.51828  -0.78713  -0.25755 
 H                    -3.05356  -1.76436  -0.38428 
 H                    -3.98685  -1.75743   1.11831 
 C                    -2.96297   2.45443   5.23436 
 H                    -3.75781   2.89404   4.62646 
 H                    -3.4272    1.98233   6.10174 
 H                    -2.32558   3.26563   5.59524 
 

 GradGradGradGradGradGradGradGradGradGradGradGradGradGradGradGradGradGrad
 Berny optimization.
 Initialization pass.
                           ----------------------------
                           !    Initial Parameters    !
                           ! (Angstroms and Degrees)  !
 --------------------------                            --------------------------
 ! Name  Definition              Value          Derivative Info.                !
 --------------------------------------------------------------------------------
 ! R1    R(1,2)                  1.8202         estimate D2E/DX2                !
 ! R2    R(1,4)                  1.8201         estimate D2E/DX2                !
 ! R3    R(1,6)                  1.8184         estimate D2E/DX2                !
 ! R4    R(1,8)                  1.8119         estimate D2E/DX2                !
 ! R5    R(2,3)                  1.5373         estimate D2E/DX2                !
 ! R6    R(2,9)                  1.0943         estimate D2E/DX2                !
 ! R7    R(2,10)                 1.0951         estimate D2E/DX2                !
 ! R8    R(3,11)                 1.0942         estimate D2E/DX2                !
 ! R9    R(3,12)                 1.094          estimate D2E/DX2                !
 ! R10   R(3,28)                 1.5303         estimate D2E/DX2                !
 ! R11   R(4,5)                  1.5374         estimate D2E/DX2                !
 ! R12   R(4,13)                 1.0951         estimate D2E/DX2                !
 ! R13   R(4,14)                 1.0943         estimate D2E/DX2                !
 ! R14   R(5,15)                 1.094          estimate D2E/DX2                !
 ! R15   R(5,16)                 1.0941         estimate D2E/DX2                !
 ! R16   R(5,24)                 1.5303         estimate D2E/DX2                !
 ! R17   R(6,7)                  1.5369         estimate D2E/DX2                !
 ! R18   R(6,17)                 1.0942         estimate D2E/DX2                !
 ! R19   R(6,18)                 1.0942         estimate D2E/DX2                !
 ! R20   R(7,19)                 1.0943         estimate D2E/DX2                !
 ! R21   R(7,20)                 1.0943         estimate D2E/DX2                !
 ! R22   R(7,32)                 1.5301         estimate D2E/DX2                !
 ! R23   R(8,21)                 1.0914         estimate D2E/DX2                !
 ! R24   R(8,22)                 1.0906         estimate D2E/DX2                !
 ! R25   R(8,23)                 1.0907         estimate D2E/DX2                !
 ! R26   R(24,25)                1.0929         estimate D2E/DX2                !
 ! R27   R(24,26)                1.0912         estimate D2E/DX2                !
 ! R28   R(24,27)                1.093          estimate D2E/DX2                !
 ! R29   R(28,29)                1.0912         estimate D2E/DX2                !
 ! R30   R(28,30)                1.0929         estimate D2E/DX2                !
 ! R31   R(28,31)                1.093          estimate D2E/DX2                !
 ! R32   R(32,33)                1.093          estimate D2E/DX2                !
 ! R33   R(32,34)                1.0912         estimate D2E/DX2                !
 ! R34   R(32,35)                1.093          estimate D2E/DX2                !
 ! A1    A(2,1,4)              108.6722         estimate D2E/DX2                !
 ! A2    A(2,1,6)              110.2183         estimate D2E/DX2                !
 ! A3    A(2,1,8)              109.4877         estimate D2E/DX2                !
 ! A4    A(4,1,6)              110.2563         estimate D2E/DX2                !
 ! A5    A(4,1,8)              109.5147         estimate D2E/DX2                !
 ! A6    A(6,1,8)              108.6789         estimate D2E/DX2                !
 ! A7    A(1,2,3)              114.6339         estimate D2E/DX2                !
 ! A8    A(1,2,9)              106.8588         estimate D2E/DX2                !
 ! A9    A(1,2,10)             106.6739         estimate D2E/DX2                !
 ! A10   A(3,2,9)              110.7114         estimate D2E/DX2                !
 ! A11   A(3,2,10)             110.8783         estimate D2E/DX2                !
 ! A12   A(9,2,10)             106.6685         estimate D2E/DX2                !
 ! A13   A(2,3,11)             109.9152         estimate D2E/DX2                !
 ! A14   A(2,3,12)             109.6594         estimate D2E/DX2                !
 ! A15   A(2,3,28)             111.3116         estimate D2E/DX2                !
 ! A16   A(11,3,12)            106.8399         estimate D2E/DX2                !
 ! A17   A(11,3,28)            109.4894         estimate D2E/DX2                !
 ! A18   A(12,3,28)            109.5199         estimate D2E/DX2                !
 ! A19   A(1,4,5)              114.663          estimate D2E/DX2                !
 ! A20   A(1,4,13)             106.6598         estimate D2E/DX2                !
 ! A21   A(1,4,14)             106.8475         estimate D2E/DX2                !
 ! A22   A(5,4,13)             110.8725         estimate D2E/DX2                !
 ! A23   A(5,4,14)             110.7129         estimate D2E/DX2                !
 ! A24   A(13,4,14)            106.6666         estimate D2E/DX2                !
 ! A25   A(4,5,15)             109.674          estimate D2E/DX2                !
 ! A26   A(4,5,16)             109.9206         estimate D2E/DX2                !
 ! A27   A(4,5,24)             111.3136         estimate D2E/DX2                !
 ! A28   A(15,5,16)            106.8394         estimate D2E/DX2                !
 ! A29   A(15,5,24)            109.5022         estimate D2E/DX2                !
 ! A30   A(16,5,24)            109.4854         estimate D2E/DX2                !
 ! A31   A(1,6,7)              113.9875         estimate D2E/DX2                !
 ! A32   A(1,6,17)             106.9731         estimate D2E/DX2                !
 ! A33   A(1,6,18)             107.0095         estimate D2E/DX2                !
 ! A34   A(7,6,17)             110.9231         estimate D2E/DX2                !
 ! A35   A(7,6,18)             110.9426         estimate D2E/DX2                !
 ! A36   A(17,6,18)            106.6283         estimate D2E/DX2                !
 ! A37   A(6,7,19)             109.7397         estimate D2E/DX2                !
 ! A38   A(6,7,20)             109.7471         estimate D2E/DX2                !
 ! A39   A(6,7,32)             111.3849         estimate D2E/DX2                !
 ! A40   A(19,7,20)            106.7471         estimate D2E/DX2                !
 ! A41   A(19,7,32)            109.5526         estimate D2E/DX2                !
 ! A42   A(20,7,32)            109.5576         estimate D2E/DX2                !
 ! A43   A(1,8,21)             109.8283         estimate D2E/DX2                !
 ! A44   A(1,8,22)             109.8861         estimate D2E/DX2                !
 ! A45   A(1,8,23)             109.8657         estimate D2E/DX2                !
 ! A46   A(21,8,22)            109.1893         estimate D2E/DX2                !
 ! A47   A(21,8,23)            109.1863         estimate D2E/DX2                !
 ! A48   A(22,8,23)            108.8632         estimate D2E/DX2                !
 ! A49   A(5,24,25)            111.2062         estimate D2E/DX2                !
 ! A50   A(5,24,26)            110.5691         estimate D2E/DX2                !
 ! A51   A(5,24,27)            111.1716         estimate D2E/DX2                !
 ! A52   A(25,24,26)           107.8559         estimate D2E/DX2                !
 ! A53   A(25,24,27)           108.042          estimate D2E/DX2                !
 ! A54   A(26,24,27)           107.8565         estimate D2E/DX2                !
 ! A55   A(3,28,29)            110.5746         estimate D2E/DX2                !
 ! A56   A(3,28,30)            111.2011         estimate D2E/DX2                !
 ! A57   A(3,28,31)            111.174          estimate D2E/DX2                !
 ! A58   A(29,28,30)           107.8549         estimate D2E/DX2                !
 ! A59   A(29,28,31)           107.8581         estimate D2E/DX2                !
 ! A60   A(30,28,31)           108.0385         estimate D2E/DX2                !
 ! A61   A(7,32,33)            111.1708         estimate D2E/DX2                !
 ! A62   A(7,32,34)            110.6142         estimate D2E/DX2                !
 ! A63   A(7,32,35)            111.1769         estimate D2E/DX2                !
 ! A64   A(33,32,34)           107.8629         estimate D2E/DX2                !
 ! A65   A(33,32,35)           108.0125         estimate D2E/DX2                !
 ! A66   A(34,32,35)           107.8636         estimate D2E/DX2                !
 ! D1    D(4,1,2,3)            175.8762         estimate D2E/DX2                !
 ! D2    D(4,1,2,9)             52.8173         estimate D2E/DX2                !
 ! D3    D(4,1,2,10)           -60.9884         estimate D2E/DX2                !
 ! D4    D(6,1,2,3)             54.9514         estimate D2E/DX2                !
 ! D5    D(6,1,2,9)            -68.1075         estimate D2E/DX2                !
 ! D6    D(6,1,2,10)           178.0868         estimate D2E/DX2                !
 ! D7    D(8,1,2,3)            -64.5446         estimate D2E/DX2                !
 ! D8    D(8,1,2,9)            172.3965         estimate D2E/DX2                !
 ! D9    D(8,1,2,10)            58.5908         estimate D2E/DX2                !
 ! D10   D(2,1,4,5)           -175.8787         estimate D2E/DX2                !
 ! D11   D(2,1,4,13)            60.9846         estimate D2E/DX2                !
 ! D12   D(2,1,4,14)           -52.8071         estimate D2E/DX2                !
 ! D13   D(6,1,4,5)            -54.9773         estimate D2E/DX2                !
 ! D14   D(6,1,4,13)          -178.114          estimate D2E/DX2                !
 ! D15   D(6,1,4,14)            68.0943         estimate D2E/DX2                !
 ! D16   D(8,1,4,5)             64.559          estimate D2E/DX2                !
 ! D17   D(8,1,4,13)           -58.5777         estimate D2E/DX2                !
 ! D18   D(8,1,4,14)          -172.3694         estimate D2E/DX2                !
 ! D19   D(2,1,6,7)             59.9434         estimate D2E/DX2                !
 ! D20   D(2,1,6,17)           -63.0461         estimate D2E/DX2                !
 ! D21   D(2,1,6,18)          -177.0156         estimate D2E/DX2                !
 ! D22   D(4,1,6,7)            -60.029          estimate D2E/DX2                !
 ! D23   D(4,1,6,17)           176.9815         estimate D2E/DX2                !
 ! D24   D(4,1,6,18)            63.012          estimate D2E/DX2                !
 ! D25   D(8,1,6,7)            179.9292         estimate D2E/DX2                !
 ! D26   D(8,1,6,17)            56.9397         estimate D2E/DX2                !
 ! D27   D(8,1,6,18)           -57.0298         estimate D2E/DX2                !
 ! D28   D(2,1,8,21)           -59.6908         estimate D2E/DX2                !
 ! D29   D(2,1,8,22)          -179.8225         estimate D2E/DX2                !
 ! D30   D(2,1,8,23)            60.4245         estimate D2E/DX2                !
 ! D31   D(4,1,8,21)            59.3691         estimate D2E/DX2                !
 ! D32   D(4,1,8,22)           -60.7627         estimate D2E/DX2                !
 ! D33   D(4,1,8,23)           179.4844         estimate D2E/DX2                !
 ! D34   D(6,1,8,21)           179.8704         estimate D2E/DX2                !
 ! D35   D(6,1,8,22)            59.7387         estimate D2E/DX2                !
 ! D36   D(6,1,8,23)           -60.0143         estimate D2E/DX2                !
 ! D37   D(1,2,3,11)            57.5655         estimate D2E/DX2                !
 ! D38   D(1,2,3,12)           -59.6042         estimate D2E/DX2                !
 ! D39   D(1,2,3,28)           179.048          estimate D2E/DX2                !
 ! D40   D(9,2,3,11)           178.5276         estimate D2E/DX2                !
 ! D41   D(9,2,3,12)            61.3579         estimate D2E/DX2                !
 ! D42   D(9,2,3,28)           -59.9899         estimate D2E/DX2                !
 ! D43   D(10,2,3,11)          -63.2809         estimate D2E/DX2                !
 ! D44   D(10,2,3,12)          179.5493         estimate D2E/DX2                !
 ! D45   D(10,2,3,28)           58.2016         estimate D2E/DX2                !
 ! D46   D(2,3,28,29)          179.7413         estimate D2E/DX2                !
 ! D47   D(2,3,28,30)          -60.4652         estimate D2E/DX2                !
 ! D48   D(2,3,28,31)           59.9615         estimate D2E/DX2                !
 ! D49   D(11,3,28,29)         -58.5284         estimate D2E/DX2                !
 ! D50   D(11,3,28,30)          61.2651         estimate D2E/DX2                !
 ! D51   D(11,3,28,31)        -178.3082         estimate D2E/DX2                !
 ! D52   D(12,3,28,29)          58.3121         estimate D2E/DX2                !
 ! D53   D(12,3,28,30)         178.1056         estimate D2E/DX2                !
 ! D54   D(12,3,28,31)         -61.4677         estimate D2E/DX2                !
 ! D55   D(1,4,5,15)            59.5876         estimate D2E/DX2                !
 ! D56   D(1,4,5,16)           -57.5934         estimate D2E/DX2                !
 ! D57   D(1,4,5,24)          -179.0757         estimate D2E/DX2                !
 ! D58   D(13,4,5,15)         -179.5679         estimate D2E/DX2                !
 ! D59   D(13,4,5,16)           63.2511         estimate D2E/DX2                !
 ! D60   D(13,4,5,24)          -58.2312         estimate D2E/DX2                !
 ! D61   D(14,4,5,15)          -61.3816         estimate D2E/DX2                !
 ! D62   D(14,4,5,16)         -178.5626         estimate D2E/DX2                !
 ! D63   D(14,4,5,24)           59.955          estimate D2E/DX2                !
 ! D64   D(4,5,24,25)           60.4738         estimate D2E/DX2                !
 ! D65   D(4,5,24,26)         -179.7318         estimate D2E/DX2                !
 ! D66   D(4,5,24,27)          -59.9591         estimate D2E/DX2                !
 ! D67   D(15,5,24,25)        -178.0893         estimate D2E/DX2                !
 ! D68   D(15,5,24,26)         -58.2949         estimate D2E/DX2                !
 ! D69   D(15,5,24,27)          61.4778         estimate D2E/DX2                !
 ! D70   D(16,5,24,25)         -61.2618         estimate D2E/DX2                !
 ! D71   D(16,5,24,26)          58.5327         estimate D2E/DX2                !
 ! D72   D(16,5,24,27)         178.3053         estimate D2E/DX2                !
 ! D73   D(1,6,7,19)           -58.3125         estimate D2E/DX2                !
 ! D74   D(1,6,7,20)            58.6932         estimate D2E/DX2                !
 ! D75   D(1,6,7,32)          -179.804          estimate D2E/DX2                !
 ! D76   D(17,6,7,19)           62.4978         estimate D2E/DX2                !
 ! D77   D(17,6,7,20)          179.5035         estimate D2E/DX2                !
 ! D78   D(17,6,7,32)          -58.9936         estimate D2E/DX2                !
 ! D79   D(18,6,7,19)         -179.1849         estimate D2E/DX2                !
 ! D80   D(18,6,7,20)          -62.1792         estimate D2E/DX2                !
 ! D81   D(18,6,7,32)           59.3237         estimate D2E/DX2                !
 ! D82   D(6,7,32,33)           60.2008         estimate D2E/DX2                !
 ! D83   D(6,7,32,34)         -179.9892         estimate D2E/DX2                !
 ! D84   D(6,7,32,35)          -60.1743         estimate D2E/DX2                !
 ! D85   D(19,7,32,33)         -61.3995         estimate D2E/DX2                !
 ! D86   D(19,7,32,34)          58.4105         estimate D2E/DX2                !
 ! D87   D(19,7,32,35)         178.2254         estimate D2E/DX2                !
 ! D88   D(20,7,32,33)        -178.1861         estimate D2E/DX2                !
 ! D89   D(20,7,32,34)         -58.3762         estimate D2E/DX2                !
 ! D90   D(20,7,32,35)          61.4387         estimate D2E/DX2                !
 --------------------------------------------------------------------------------
 Trust Radius=3.00D-01 FncErr=1.00D-07 GrdErr=1.00D-06
 Number of steps in this run=    210 maximum allowed number of steps=    210.
 GradGradGradGradGradGradGradGradGradGradGradGradGradGradGradGradGradGrad

                          Input orientation:                          
 ---------------------------------------------------------------------
 Center     Atomic      Atomic             Coordinates (Angstroms)
 Number     Number       Type             X           Y           Z
 ---------------------------------------------------------------------
      1         15           0       -0.517529    0.922409    2.196475
      2          6           0       -1.578602   -0.419529    1.574880
      3          6           0       -2.817233    0.051645    0.795652
      4          6           0        0.821579    0.193483    3.190565
      5          6           0        1.747433    1.216780    3.868326
      6          6           0       -1.492953    2.078663    3.205574
      7          6           0       -2.155299    1.431870    4.432364
      8          6           0        0.191976    1.829277    0.797515
      9          1           0       -1.871870   -1.019658    2.441736
     10          1           0       -0.944482   -1.058051    0.950805
     11          1           0       -2.510601    0.671502   -0.052261
     12          1           0       -3.439696    0.680362    1.439136
     13          1           0        1.388376   -0.462169    2.521122
     14          1           0        0.347678   -0.452818    3.935745
     15          1           0        1.163297    1.855562    4.537312
     16          1           0        2.194180    1.871973    3.114472
     17          1           0       -2.243571    2.523873    2.545495
     18          1           0       -0.820244    2.887856    3.505436
     19          1           0       -2.811597    0.617152    4.111503
     20          1           0       -1.389269    0.985655    5.073871
     21          1           0        0.784264    1.152199    0.179514
     22          1           0        0.831830    2.633420    1.162823
     23          1           0       -0.606247    2.260998    0.192522
     24          6           0        2.855944    0.523053    4.663200
     25          1           0        3.478799   -0.097488    4.014087
     26          1           0        3.502528    1.259829    5.142618
     27          1           0        2.439569   -0.116869    5.445358
     28          6           0       -3.640416   -1.134926    0.289379
     29          1           0       -4.518278   -0.787126   -0.257551
     30          1           0       -3.053565   -1.764359   -0.384275
     31          1           0       -3.986851   -1.757431    1.118308
     32          6           0       -2.962969    2.454426    5.234364
     33          1           0       -3.757808    2.894038    4.626464
     34          1           0       -3.427197    1.982329    6.101743
     35          1           0       -2.325578    3.265628    5.595240
 ---------------------------------------------------------------------
                    Distance matrix (angstroms):
                    1          2          3          4          5
     1  P    0.000000
     2  C    1.820180   0.000000
     3  C    2.830048   1.537338   0.000000
     4  C    1.820099   2.957549   4.358518   0.000000
     5  C    2.830511   4.358889   5.624504   1.537434   0.000000
     6  C    1.818421   2.984537   3.416174   2.985161   3.417921
     7  C    2.817984   3.453327   3.945738   3.455064   3.949141
     8  C    1.811877   2.965868   3.495042   2.966296   3.496352
     9  H    2.380340   1.094349   2.179678   3.047478   4.487334
    10  H    2.378278   1.095120   2.182360   3.114777   4.575281
    11  H    3.015311   2.169460   1.094167   4.674168   5.813707
    12  H    3.028400   2.166070   1.093991   4.632820   5.752827
    13  H    2.378009   3.114507   4.574757   1.095123   2.182373
    14  H    2.380104   3.047187   4.486795   1.094340   2.179774
    15  H    3.029104   4.633579   5.753152   2.166334   1.093983
    16  H    3.016249   4.674956   5.814188   2.169597   1.094147
    17  H    2.380277   3.169841   3.082685   3.904098   4.403009
    18  H    2.380755   3.903966   4.401703   3.170862   3.084987
    19  H    3.003874   3.004902   3.363732   3.771948   4.604720
    20  H    3.007214   3.775358   4.605933   3.010353   3.368331
    21  H    2.411556   3.162359   3.815970   3.160215   3.813030
    22  H    2.411797   3.911582   4.485090   3.172559   3.188251
    23  H    2.411539   3.168851   3.183310   3.911723   4.487955
    24  C    4.198159   5.485561   6.882230   2.532965   1.530320
    25  H    4.507166   5.624122   7.072524   2.797083   2.178572
    26  H    4.995445   6.431709   7.764999   3.483546   2.169339
    27  H    4.514396   5.587298   7.020123   2.792543   2.178233
    28  C    4.197864   2.532860   1.530325   5.485522   6.882463
    29  H    4.995073   3.483479   2.169408   6.431577   7.765156
    30  H    4.506714   2.796850   2.178521   5.624000   7.072580
    31  H    4.514442   2.792508   2.178273   5.587604   7.020723
    32  C    4.189990   4.854679   5.049431   4.859195   5.058232
    33  H    4.504616   5.004081   4.861995   5.506867   5.804795
    34  H    4.984046   5.447817   5.679278   5.452250   5.687795
    35  H    4.506808   5.504693   5.797193   5.012498   4.875390
                    6          7          8          9         10
     6  C    0.000000
     7  C    1.536898   0.000000
     8  C    2.949565   4.345084   0.000000
     9  H    3.213506   3.170634   3.883215   0.000000
    10  H    3.901766   4.448262   3.106718   1.756245   0.000000
    11  H    3.691774   4.562483   3.060472   3.080263   2.539729
    12  H    2.977475   3.342731   3.862736   2.520587   3.080039
    13  H    3.902097   4.449479   3.106914   3.308519   2.874578
    14  H    3.213949   3.172313   3.883386   2.734916   3.308452
    15  H    2.979759   3.347179   3.863967   4.676598   5.078869
    16  H    3.694045   4.566015   3.062504   5.034567   4.808086
    17  H    1.094232   2.181865   3.077303   3.564484   4.130478
    18  H    1.094188   2.182077   3.078639   4.184022   4.702314
    19  H    2.166920   1.094278   4.633920   2.519991   4.035150
    20  H    2.167014   1.094277   4.636729   3.343998   4.623229
    21  H    3.898858   5.177449   1.091405   4.109703   2.910096
    22  H    3.144074   4.588742   1.090646   4.721291   4.102096
    23  H    3.146105   4.589474   1.090670   4.174144   3.421328
    24  C    4.843294   5.098214   4.873035   5.446750   5.543014
    25  H    5.487043   5.852944   4.986177   5.652641   5.465510
    26  H    5.420098   5.704828   5.492171   6.432338   6.536036
    27  H    5.030081   4.953540   5.517391   5.331536   5.704264
    28  C    4.841791   5.094932   4.871543   2.788133   2.776951
    29  H    5.418356   5.701133   5.490467   3.787308   3.782267
    30  H    5.485558   5.850023   4.984414   3.152352   2.594136
    31  H    5.029098   4.950676   5.516338   2.601714   3.126212
    32  C    2.533403   1.530084   5.479975   4.588958   5.895817
    33  H    2.795234   2.177991   5.603157   4.862799   6.086401
    34  H    3.484017   2.169691   6.423136   4.982632   6.476106
    35  H    2.795112   2.178060   5.605297   5.339861   6.494028
                   11         12         13         14         15
    11  H    0.000000
    12  H    1.757145   0.000000
    13  H    4.807237   5.078027   0.000000
    14  H    5.033691   4.675613   1.756218   0.000000
    15  H    5.996975   5.671626   3.080188   2.521058   0.000000
    16  H    5.796921   5.997270   2.539607   3.080375   1.757118
    17  H    3.201706   2.460341   4.701923   4.184263   4.002590
    18  H    4.519595   4.000519   4.131530   3.565011   2.462688
    19  H    4.174982   2.745915   4.618876   3.340171   4.185064
    20  H    5.256739   4.184347   4.040797   2.526167   2.749586
    21  H    3.337803   4.432958   2.907621   4.108036   4.430439
    22  H    4.061699   4.704967   3.425987   4.177124   3.478808
    23  H    2.492585   3.475757   4.100798   4.720858   4.708808
    24  C    7.145447   7.074915   2.777214   2.787994   2.157888
    25  H    7.280072   7.423005   2.594572   3.152193   3.074039
    26  H    7.968100   7.889616   3.782480   3.787186   2.488633
    27  H    7.439726   7.158991   3.126563   2.601499   2.518710
    28  C    2.157865   2.158124   5.542746   5.446664   7.075564
    29  H    2.490082   2.489098   6.535686   6.432187   7.890172
    30  H    2.517630   3.074181   5.465150   5.652537   7.423461
    31  H    3.073965   2.518958   5.704267   5.331802   7.160121
    32  C    5.597486   4.216435   5.899357   4.593350   4.227362
    33  H    5.327819   3.893663   6.494598   5.341680   5.030274
    34  H    6.358473   4.840989   6.479673   4.987100   4.851407
    35  H    6.217555   5.019767   6.094270   4.871043   3.908932
                   16         17         18         19         20
    16  H    0.000000
    17  H    4.521321   0.000000
    18  H    3.204937   1.754945   0.000000
    19  H    5.256087   2.531920   3.080406   0.000000
    20  H    4.179223   3.080362   2.530246   1.756407   0.000000
    21  H    3.334654   4.080091   4.080283   5.355094   5.357865
    22  H    2.498946   3.373703   2.877832   5.102412   4.790063
    23  H    4.065898   2.878613   3.378483   4.787923   5.105604
    24  C    2.157795   5.873075   4.521843   5.695107   4.290044
    25  H    2.517604   6.463267   5.258590   6.331610   5.098473
    26  H    2.489954   6.431214   4.900734   6.429962   4.899957
    27  H    3.073880   6.108561   4.839219   5.467422   4.001694
    28  C    7.145985   4.519739   5.871896   4.285480   5.697007
    29  H    7.968591   4.898375   6.429699   4.896263   6.430981
    30  H    7.280314   5.256290   6.462250   5.093345   6.334337
    31  H    7.440591   4.837919   6.107739   3.997384   5.469775
    32  C    5.606191   2.784308   2.787171   2.158543   2.158606
    33  H    6.225503   2.600070   3.144205   2.518871   3.074423
    34  H    6.366777   3.786970   3.789063   2.490729   2.490589
    35  H    5.340851   3.139724   2.603080   3.074430   2.519281
                   21         22         23         24         25
    21  H    0.000000
    22  H    1.778532   0.000000
    23  H    1.778519   1.774331   0.000000
    24  C    4.979069   4.561066   5.915589   0.000000
    25  H    4.850380   4.753315   6.070784   1.092871   0.000000
    26  H    5.659765   4.985794   6.510594   1.091215   1.765348
    27  H    5.663892   5.337510   6.521008   1.092995   1.768874
    28  C    4.982049   5.913063   4.554982   8.005117   8.101417
    29  H    5.662947   6.507016   4.979720   8.961558   9.092620
    30  H    4.853154   6.068794   4.746110   8.101330   8.049586
    31  H    5.666641   6.519298   5.332292   8.036835   8.177829
    32  C    6.425656   5.568660   5.568817   6.157612   7.035462
    33  H    6.590887   5.755823   5.476579   7.025997   7.854471
    34  H    7.314255   6.554095   6.553954   6.608839   7.508444
    35  H    6.593011   5.478616   5.758016   5.936210   6.892125
                   26         27         28         29         30
    26  H    0.000000
    27  H    1.765455   0.000000
    28  C    8.961609   8.036590   0.000000
    29  H    9.883582   9.021311   1.091210   0.000000
    30  H    9.092558   8.177613   1.092882   1.765341   0.000000
    31  H    9.021626   7.919197   1.093002   1.765473   1.768849
    32  C    6.575571   5.986944   6.147784   6.564128   7.026767
    33  H    7.459862   6.938561   5.920864   6.163026   6.877800
    34  H    7.032996   6.265494   6.598963   7.021465   7.499714
    35  H    6.180204   5.845543   7.017537   7.449021   7.847633
                   31         32         33         34         35
    31  H    0.000000
    32  C    5.977457   0.000000
    33  H    5.830590   1.092964   0.000000
    34  H    6.255689   1.091206   1.765493   0.000000
    35  H    6.930647   1.092953   1.768584   1.765493   0.000000
 Symmetry turned off by external request.
 Stoichiometry    C10H24P
 Rotational constants (GHZ):      0.9448980      0.5552348      0.4211978
 Standard basis: 6-311+G(d,p) (5D, 7F)
   394 basis functions,   602 primitive gaussians,   405 cartesian basis functions
    49 alpha electrons       49 beta electrons
       nuclear repulsion energy       790.5329688240 Hartrees.
 NAtoms=   35 NActive=   35 NUniq=   35 SFac= 1.00D+00 NAtFMM=   60 NAOKFM=F Big=F
 Integral buffers will be    131072 words long.
 Raffenetti 2 integral format.
 Two-electron integral symmetry is turned off.
 Nuclear repulsion after empirical dispersion term =      790.4715708609 Hartrees.
 One-electron integrals computed using PRISM.
 NBasis=   394 RedAO= T EigKep=  8.52D-06  NBF=   394
 NBsUse=   394 1.00D-06 EigRej= -1.00D+00 NBFU=   394
 ExpMin= 3.48D-02 ExpMax= 7.75D+04 ExpMxC= 2.65D+03 IAcc=3 IRadAn=         5 AccDes= 0.00D+00
 Harris functional with IExCor=  402 and IRadAn=       5 diagonalized for initial guess.
 HarFok:  IExCor=  402 AccDes= 0.00D+00 IRadAn=         5 IDoV= 1 UseB2=F ITyADJ=14
 ICtDFT=  3500011 ScaDFX=  1.000000  1.000000  1.000000  1.000000
 FoFCou: FMM=F IPFlag=           0 FMFlag=      100000 FMFlg1=           0
         NFxFlg=           0 DoJE=T BraDBF=F KetDBF=T FulRan=T
         wScrn=  0.000000 ICntrl=     500 IOpCl=  0 I1Cent=   200000004 NGrid=           0
         NMat0=    1 NMatS0=      1 NMatT0=    0 NMatD0=    1 NMtDS0=    0 NMtDT0=    0
 Symmetry not used in FoFCou.
 Keep R1 ints in memory in canonical form, NReq=3061610370.
 Requested convergence on RMS density matrix=1.00D-10 within 128 cycles.
 Requested convergence on MAX density matrix=1.00D-08.
 Requested convergence on             energy=1.00D-08.
 No special actions if energy rises.
 DSYEVD-2 returned Info=       78604 IAlg= 4 N=   394 NDim=   394 NE2=    12753172 trying  DSYEV.
 SCF Done:  E(RB3LYP) =  -736.892996155     A.U. after   19 cycles
            NFock= 19  Conv=0.79D-10     -V/T= 2.0036

 **********************************************************************

            Population analysis using the SCF density.

 **********************************************************************

 Alpha  occ. eigenvalues --  -77.27039 -10.34290 -10.34288 -10.34243 -10.34178
 Alpha  occ. eigenvalues --  -10.31907 -10.31854 -10.31852 -10.28252 -10.28183
 Alpha  occ. eigenvalues --  -10.28182  -6.76611  -4.92658  -4.92624  -4.92622
 Alpha  occ. eigenvalues --   -0.99031  -0.93872  -0.93539  -0.90443  -0.85543
 Alpha  occ. eigenvalues --   -0.83500  -0.82931  -0.75039  -0.74339  -0.73347
 Alpha  occ. eigenvalues --   -0.70250  -0.63643  -0.63490  -0.62280  -0.60044
 Alpha  occ. eigenvalues --   -0.59196  -0.57700  -0.56908  -0.56193  -0.56011
 Alpha  occ. eigenvalues --   -0.55412  -0.53517  -0.53466  -0.53301  -0.52905
 Alpha  occ. eigenvalues --   -0.50036  -0.49006  -0.48589  -0.48051  -0.47750
 Alpha  occ. eigenvalues --   -0.47654  -0.47484  -0.47430  -0.46637
 Alpha virt. eigenvalues --   -0.13416  -0.11818  -0.11531  -0.11023  -0.10339
 Alpha virt. eigenvalues --   -0.10025  -0.09245  -0.08329  -0.07970  -0.07549
 Alpha virt. eigenvalues --   -0.07299  -0.07119  -0.06137  -0.05737  -0.05248
 Alpha virt. eigenvalues --   -0.04884  -0.04466  -0.03921  -0.03819  -0.03609
 Alpha virt. eigenvalues --   -0.02567  -0.02279  -0.01974  -0.01776  -0.01527
 Alpha virt. eigenvalues --   -0.01376  -0.00658  -0.00560  -0.00205   0.00293
 Alpha virt. eigenvalues --    0.00736   0.00811   0.00859   0.01405   0.02306
 Alpha virt. eigenvalues --    0.02498   0.02910   0.03314   0.04004   0.04047
 Alpha virt. eigenvalues --    0.04803   0.04860   0.05484   0.05814   0.06104
 Alpha virt. eigenvalues --    0.06716   0.06791   0.07616   0.07738   0.08977
 Alpha virt. eigenvalues --    0.09268   0.09725   0.09765   0.10706   0.10786
 Alpha virt. eigenvalues --    0.11030   0.11332   0.11734   0.12002   0.12551
 Alpha virt. eigenvalues --    0.13036   0.13514   0.13533   0.14045   0.14421
 Alpha virt. eigenvalues --    0.14713   0.15442   0.15703   0.16011   0.16681
 Alpha virt. eigenvalues --    0.16988   0.17475   0.18309   0.19416   0.19990
 Alpha virt. eigenvalues --    0.20736   0.21456   0.21504   0.24089   0.25046
 Alpha virt. eigenvalues --    0.26590   0.27394   0.28036   0.29177   0.30247
 Alpha virt. eigenvalues --    0.31666   0.32512   0.33922   0.34255   0.35098
 Alpha virt. eigenvalues --    0.36553   0.36891   0.37470   0.39159   0.39388
 Alpha virt. eigenvalues --    0.40913   0.41614   0.42702   0.42885   0.44048
 Alpha virt. eigenvalues --    0.44721   0.45269   0.46344   0.46991   0.47546
 Alpha virt. eigenvalues --    0.48215   0.48969   0.49830   0.50177   0.50575
 Alpha virt. eigenvalues --    0.51561   0.52044   0.52899   0.53090   0.54032
 Alpha virt. eigenvalues --    0.55292   0.55390   0.56084   0.56794   0.56981
 Alpha virt. eigenvalues --    0.57235   0.57787   0.58509   0.58728   0.59515
 Alpha virt. eigenvalues --    0.59996   0.61650   0.62770   0.62955   0.63360
 Alpha virt. eigenvalues --    0.64156   0.64601   0.65013   0.66869   0.67520
 Alpha virt. eigenvalues --    0.68040   0.68773   0.69683   0.71234   0.71670
 Alpha virt. eigenvalues --    0.71725   0.75294   0.79275   0.79355   0.81829
 Alpha virt. eigenvalues --    0.82919   0.84404   0.85053   0.85676   0.86237
 Alpha virt. eigenvalues --    0.87005   0.89611   0.92323   0.93701   0.96746
 Alpha virt. eigenvalues --    0.96889   1.00295   1.02171   1.10153   1.10374
 Alpha virt. eigenvalues --    1.11492   1.13578   1.13935   1.15738   1.16040
 Alpha virt. eigenvalues --    1.16326   1.22929   1.22990   1.29986   1.33680
 Alpha virt. eigenvalues --    1.34345   1.34601   1.34697   1.34922   1.36620
 Alpha virt. eigenvalues --    1.38793   1.40939   1.41632   1.41839   1.42841
 Alpha virt. eigenvalues --    1.42974   1.43358   1.43581   1.44040   1.45380
 Alpha virt. eigenvalues --    1.45481   1.45522   1.46488   1.46535   1.46910
 Alpha virt. eigenvalues --    1.47475   1.47870   1.48157   1.49283   1.50479
 Alpha virt. eigenvalues --    1.52505   1.52999   1.54805   1.55006   1.55655
 Alpha virt. eigenvalues --    1.55955   1.56725   1.57844   1.60268   1.60958
 Alpha virt. eigenvalues --    1.61238   1.61483   1.62217   1.62298   1.63749
 Alpha virt. eigenvalues --    1.64966   1.66873   1.67653   1.69380   1.69954
 Alpha virt. eigenvalues --    1.70526   1.77559   1.77936   1.79677   1.81885
 Alpha virt. eigenvalues --    1.82094   1.83653   1.86030   1.86271   1.89099
 Alpha virt. eigenvalues --    1.90186   1.90774   1.91378   1.93944   1.96765
 Alpha virt. eigenvalues --    1.98514   1.99657   2.00893   2.01072   2.01530
 Alpha virt. eigenvalues --    2.02379   2.03509   2.04842   2.05681   2.07036
 Alpha virt. eigenvalues --    2.08133   2.10684   2.11231   2.17707   2.19087
 Alpha virt. eigenvalues --    2.20193   2.21322   2.22011   2.22180   2.22599
 Alpha virt. eigenvalues --    2.24078   2.24579   2.32089   2.32739   2.34560
 Alpha virt. eigenvalues --    2.34612   2.35475   2.35688   2.35713   2.36594
 Alpha virt. eigenvalues --    2.37247   2.38149   2.38870   2.39548   2.41334
 Alpha virt. eigenvalues --    2.42224   2.43033   2.43294   2.43855   2.46520
 Alpha virt. eigenvalues --    2.47391   2.48794   2.49050   2.50859   2.51431
 Alpha virt. eigenvalues --    2.51978   2.53197   2.53635   2.53824   2.54466
 Alpha virt. eigenvalues --    2.55977   2.56150   2.56157   2.57681   2.59715
 Alpha virt. eigenvalues --    2.60885   2.61176   2.64107   2.64702   2.65262
 Alpha virt. eigenvalues --    2.67829   2.72565   2.73426   2.74481   2.77620
 Alpha virt. eigenvalues --    2.78368   2.78472   2.82212   2.84996   2.88037
 Alpha virt. eigenvalues --    2.93932   2.95645   2.98795   3.00357   3.14489
 Alpha virt. eigenvalues --    3.14655   3.17922   3.24275   3.27022   3.28311
 Alpha virt. eigenvalues --    3.56192   3.58505   3.58698   3.61161   3.61286
 Alpha virt. eigenvalues --    3.68200   3.69163   3.69424   3.69556   3.69760
 Alpha virt. eigenvalues --    3.69841   3.70238   3.70292   3.70938   3.97721
 Alpha virt. eigenvalues --    3.98667   3.99233   4.11233   4.11294   4.12529
 Alpha virt. eigenvalues --    7.07312  13.91519  13.93771  13.96367  23.69058
 Alpha virt. eigenvalues --   23.70074  23.72352  23.74471  23.75066  23.76562
 Alpha virt. eigenvalues --   23.79390  23.85087  23.85118  23.85314 163.23913
          Condensed to atoms (all electrons):
               1          2          3          4          5          6
     1  P   14.661966  -0.263055   0.182842  -0.257716   0.182263  -0.088115
     2  C   -0.263055   7.586772  -0.689642  -0.855316   0.110002  -0.492271
     3  C    0.182842  -0.689642   6.070208   0.109463   0.002733   0.142347
     4  C   -0.257716  -0.855316   0.109463   7.587166  -0.690737  -0.494815
     5  C    0.182263   0.110002   0.002733  -0.690737   6.070619   0.141686
     6  C   -0.088115  -0.492271   0.142347  -0.494815   0.141686   8.309653
     7  C   -0.065821   0.149863   0.014453   0.150463   0.014710  -1.561482
     8  C    0.012336  -0.075882  -0.014907  -0.077169  -0.014383  -0.469502
     9  H    0.037717   0.405052  -0.085381   0.014077  -0.003728  -0.068999
    10  H   -0.007254   0.365022   0.000492  -0.009060   0.005424   0.036582
    11  H   -0.001896  -0.015678   0.382209   0.009641   0.000269  -0.025977
    12  H   -0.010039  -0.033571   0.437930  -0.006289  -0.000382   0.040836
    13  H   -0.007483  -0.008683   0.005419   0.364825   0.000642   0.036679
    14  H    0.037807   0.013920  -0.003728   0.405013  -0.085373  -0.069018
    15  H   -0.009499  -0.006238  -0.000384  -0.033807   0.438249   0.040734
    16  H   -0.002558   0.009557   0.000269  -0.015602   0.382164  -0.025827
    17  H    0.019900  -0.055973   0.021144   0.028377  -0.004925   0.383127
    18  H    0.019075   0.028385  -0.004931  -0.055598   0.021048   0.382312
    19  H   -0.015658   0.025787  -0.016208  -0.016946   0.003209   0.000813
    20  H   -0.015943  -0.016755   0.003189   0.025774  -0.015976   0.000548
    21  H    0.037592  -0.031081   0.004387  -0.030659   0.004300   0.038832
    22  H    0.014132   0.055394  -0.001048  -0.059614   0.005646  -0.027200
    23  H    0.014285  -0.059365   0.005511   0.055447  -0.001067  -0.027494
    24  C   -0.256107  -0.080148   0.006832   0.371276  -0.274082  -0.145703
    25  H    0.011076   0.000125  -0.000113  -0.027530  -0.005393   0.000741
    26  H   -0.007651   0.000735   0.000003   0.036828  -0.053968   0.000152
    27  H    0.007349   0.000810   0.000019  -0.028912  -0.013323  -0.001878
    28  C   -0.256962   0.371516  -0.274998  -0.080262   0.006879  -0.145602
    29  H   -0.007663   0.036849  -0.053883   0.000735   0.000003   0.000152
    30  H    0.011158  -0.027660  -0.005330   0.000113  -0.000112   0.000742
    31  H    0.007297  -0.028834  -0.013249   0.000827   0.000019  -0.001884
    32  C   -0.133626  -0.061972   0.043529  -0.063275   0.043488   0.371885
    33  H    0.008812  -0.000680  -0.000812   0.000012  -0.000065  -0.031359
    34  H   -0.010407   0.000617   0.000154   0.000616   0.000158   0.036982
    35  H    0.008438   0.000033  -0.000063  -0.000624  -0.000811  -0.030996
               7          8          9         10         11         12
     1  P   -0.065821   0.012336   0.037717  -0.007254  -0.001896  -0.010039
     2  C    0.149863  -0.075882   0.405052   0.365022  -0.015678  -0.033571
     3  C    0.014453  -0.014907  -0.085381   0.000492   0.382209   0.437930
     4  C    0.150463  -0.077169   0.014077  -0.009060   0.009641  -0.006289
     5  C    0.014710  -0.014383  -0.003728   0.005424   0.000269  -0.000382
     6  C   -1.561482  -0.469502  -0.068999   0.036582  -0.025977   0.040836
     7  C    6.850070   0.243595   0.027055  -0.006981   0.006889  -0.029931
     8  C    0.243595   6.093055   0.014992  -0.023471   0.005599  -0.006828
     9  H    0.027055   0.014992   0.439388  -0.019597   0.005802  -0.007045
    10  H   -0.006981  -0.023471  -0.019597   0.449471  -0.005667   0.005290
    11  H    0.006889   0.005599   0.005802  -0.005667   0.544195  -0.036038
    12  H   -0.029931  -0.006828  -0.007045   0.005290  -0.036038   0.535271
    13  H   -0.006904  -0.023653  -0.000553   0.000968  -0.000015  -0.000019
    14  H    0.027049   0.015074   0.001450  -0.000541  -0.000012  -0.000009
    15  H   -0.029877  -0.006995  -0.000009  -0.000019   0.000002  -0.000006
    16  H    0.006829   0.005938  -0.000011  -0.000014  -0.000006   0.000002
    17  H   -0.027808  -0.001414   0.000467  -0.000186   0.000035  -0.002536
    18  H   -0.026839  -0.001207  -0.000099  -0.000086  -0.000060   0.000323
    19  H    0.397546  -0.001666  -0.002315   0.000348  -0.000092   0.001242
    20  H    0.397957  -0.001736   0.000152  -0.000080   0.000010  -0.000154
    21  H   -0.006429   0.349262  -0.000068   0.000954  -0.000141   0.000035
    22  H    0.002267   0.371207  -0.000165  -0.000225   0.000016  -0.000055
    23  H    0.002318   0.370992   0.000115   0.000573   0.002585   0.000153
    24  C    0.094710   0.057284   0.003130  -0.001486   0.000286  -0.000279
    25  H   -0.001107  -0.001549  -0.000007   0.000000   0.000000   0.000000
    26  H    0.000233   0.000315  -0.000000  -0.000000  -0.000000  -0.000000
    27  H    0.000804  -0.000815   0.000006   0.000001  -0.000000   0.000000
    28  C    0.094934   0.057829   0.011906  -0.018306  -0.027951  -0.059299
    29  H    0.000243   0.000316   0.000094   0.000054  -0.003865  -0.004211
    30  H   -0.001128  -0.001543  -0.001198   0.004953  -0.008194   0.007827
    31  H    0.000841  -0.000822   0.004898  -0.001049   0.007886  -0.008265
    32  C   -0.274648  -0.040701  -0.009172   0.001902  -0.002474   0.008265
    33  H   -0.003968  -0.000015   0.000039  -0.000002   0.000023  -0.000251
    34  H   -0.056957   0.000314   0.000010  -0.000001   0.000000  -0.000016
    35  H   -0.004103   0.000016   0.000007   0.000001  -0.000000   0.000016
              13         14         15         16         17         18
     1  P   -0.007483   0.037807  -0.009499  -0.002558   0.019900   0.019075
     2  C   -0.008683   0.013920  -0.006238   0.009557  -0.055973   0.028385
     3  C    0.005419  -0.003728  -0.000384   0.000269   0.021144  -0.004931
     4  C    0.364825   0.405013  -0.033807  -0.015602   0.028377  -0.055598
     5  C    0.000642  -0.085373   0.438249   0.382164  -0.004925   0.021048
     6  C    0.036679  -0.069018   0.040734  -0.025827   0.383127   0.382312
     7  C   -0.006904   0.027049  -0.029877   0.006829  -0.027808  -0.026839
     8  C   -0.023653   0.015074  -0.006995   0.005938  -0.001414  -0.001207
     9  H   -0.000553   0.001450  -0.000009  -0.000011   0.000467  -0.000099
    10  H    0.000968  -0.000541  -0.000019  -0.000014  -0.000186  -0.000086
    11  H   -0.000015  -0.000012   0.000002  -0.000006   0.000035  -0.000060
    12  H   -0.000019  -0.000009  -0.000006   0.000002  -0.002536   0.000323
    13  H    0.449534  -0.019583   0.005286  -0.005664  -0.000087  -0.000186
    14  H   -0.019583   0.439383  -0.007024   0.005794  -0.000100   0.000466
    15  H    0.005286  -0.007024   0.535325  -0.036028   0.000321  -0.002502
    16  H   -0.005664   0.005794  -0.036028   0.543950  -0.000060   0.000032
    17  H   -0.000087  -0.000100   0.000321  -0.000060   0.440538  -0.021963
    18  H   -0.000186   0.000466  -0.002502   0.000032  -0.021963   0.440600
    19  H   -0.000081   0.000155  -0.000156   0.000010  -0.007478   0.005027
    20  H    0.000341  -0.002308   0.001245  -0.000091   0.005020  -0.007512
    21  H    0.000951  -0.000068   0.000036  -0.000146  -0.000247  -0.000247
    22  H    0.000578   0.000111   0.000161   0.002488  -0.000274   0.001231
    23  H   -0.000225  -0.000166  -0.000053   0.000015   0.001236  -0.000267
    24  C   -0.018478   0.011931  -0.059711  -0.027540   0.001879  -0.006844
    25  H    0.004950  -0.001198   0.007826  -0.008192   0.000001   0.000008
    26  H    0.000054   0.000094  -0.004212  -0.003867  -0.000001   0.000017
    27  H   -0.001045   0.004906  -0.008261   0.007882  -0.000002   0.000032
    28  C   -0.001477   0.003125  -0.000279   0.000284  -0.006961   0.001897
    29  H   -0.000000  -0.000000  -0.000000  -0.000000   0.000017  -0.000001
    30  H    0.000000  -0.000007   0.000000   0.000000   0.000008   0.000001
    31  H    0.000001   0.000006   0.000000  -0.000000   0.000032  -0.000002
    32  C    0.001910  -0.009161   0.008243  -0.002453  -0.001700  -0.001703
    33  H    0.000001   0.000007   0.000016  -0.000000   0.004644  -0.001271
    34  H   -0.000001   0.000010  -0.000015   0.000000   0.000009   0.000006
    35  H   -0.000002   0.000038  -0.000247   0.000022  -0.001295   0.004603
              19         20         21         22         23         24
     1  P   -0.015658  -0.015943   0.037592   0.014132   0.014285  -0.256107
     2  C    0.025787  -0.016755  -0.031081   0.055394  -0.059365  -0.080148
     3  C   -0.016208   0.003189   0.004387  -0.001048   0.005511   0.006832
     4  C   -0.016946   0.025774  -0.030659  -0.059614   0.055447   0.371276
     5  C    0.003209  -0.015976   0.004300   0.005646  -0.001067  -0.274082
     6  C    0.000813   0.000548   0.038832  -0.027200  -0.027494  -0.145703
     7  C    0.397546   0.397957  -0.006429   0.002267   0.002318   0.094710
     8  C   -0.001666  -0.001736   0.349262   0.371207   0.370992   0.057284
     9  H   -0.002315   0.000152  -0.000068  -0.000165   0.000115   0.003130
    10  H    0.000348  -0.000080   0.000954  -0.000225   0.000573  -0.001486
    11  H   -0.000092   0.000010  -0.000141   0.000016   0.002585   0.000286
    12  H    0.001242  -0.000154   0.000035  -0.000055   0.000153  -0.000279
    13  H   -0.000081   0.000341   0.000951   0.000578  -0.000225  -0.018478
    14  H    0.000155  -0.002308  -0.000068   0.000111  -0.000166   0.011931
    15  H   -0.000156   0.001245   0.000036   0.000161  -0.000053  -0.059711
    16  H    0.000010  -0.000091  -0.000146   0.002488   0.000015  -0.027540
    17  H   -0.007478   0.005020  -0.000247  -0.000274   0.001236   0.001879
    18  H    0.005027  -0.007512  -0.000247   0.001231  -0.000267  -0.006844
    19  H    0.534042  -0.036866  -0.000008  -0.000001  -0.000001  -0.001814
    20  H   -0.036866   0.533555  -0.000007  -0.000001  -0.000001   0.006243
    21  H   -0.000008  -0.000007   0.435798  -0.011728  -0.011699  -0.006505
    22  H   -0.000001  -0.000001  -0.011728   0.435899  -0.015211  -0.007409
    23  H   -0.000001  -0.000001  -0.011699  -0.015211   0.436105   0.002144
    24  C   -0.001814   0.006243  -0.006505  -0.007409   0.002144   5.786805
    25  H   -0.000000   0.000021   0.000044   0.000033  -0.000001   0.386848
    26  H   -0.000000  -0.000015  -0.000002   0.000020  -0.000001   0.403137
    27  H    0.000014  -0.000199   0.000000   0.000009   0.000000   0.398542
    28  C    0.006338  -0.001821  -0.006497   0.002140  -0.007420  -0.000218
    29  H   -0.000015  -0.000000  -0.000002  -0.000001   0.000021   0.000001
    30  H    0.000021   0.000000   0.000044  -0.000001   0.000034  -0.000020
    31  H   -0.000203   0.000013   0.000000   0.000000   0.000009   0.000029
    32  C   -0.041780  -0.041604   0.000898  -0.000789  -0.000828  -0.014095
    33  H   -0.008427   0.007790  -0.000000  -0.000003   0.000010   0.000242
    34  H   -0.004088  -0.004095  -0.000000   0.000000   0.000000  -0.000093
    35  H    0.007799  -0.008409  -0.000000   0.000009  -0.000003  -0.000673
              25         26         27         28         29         30
     1  P    0.011076  -0.007651   0.007349  -0.256962  -0.007663   0.011158
     2  C    0.000125   0.000735   0.000810   0.371516   0.036849  -0.027660
     3  C   -0.000113   0.000003   0.000019  -0.274998  -0.053883  -0.005330
     4  C   -0.027530   0.036828  -0.028912  -0.080262   0.000735   0.000113
     5  C   -0.005393  -0.053968  -0.013323   0.006879   0.000003  -0.000112
     6  C    0.000741   0.000152  -0.001878  -0.145602   0.000152   0.000742
     7  C   -0.001107   0.000233   0.000804   0.094934   0.000243  -0.001128
     8  C   -0.001549   0.000315  -0.000815   0.057829   0.000316  -0.001543
     9  H   -0.000007  -0.000000   0.000006   0.011906   0.000094  -0.001198
    10  H    0.000000  -0.000000   0.000001  -0.018306   0.000054   0.004953
    11  H    0.000000  -0.000000  -0.000000  -0.027951  -0.003865  -0.008194
    12  H    0.000000  -0.000000   0.000000  -0.059299  -0.004211   0.007827
    13  H    0.004950   0.000054  -0.001045  -0.001477  -0.000000   0.000000
    14  H   -0.001198   0.000094   0.004906   0.003125  -0.000000  -0.000007
    15  H    0.007826  -0.004212  -0.008261  -0.000279  -0.000000   0.000000
    16  H   -0.008192  -0.003867   0.007882   0.000284  -0.000000   0.000000
    17  H    0.000001  -0.000001  -0.000002  -0.006961   0.000017   0.000008
    18  H    0.000008   0.000017   0.000032   0.001897  -0.000001   0.000001
    19  H   -0.000000  -0.000000   0.000014   0.006338  -0.000015   0.000021
    20  H    0.000021  -0.000015  -0.000199  -0.001821  -0.000000   0.000000
    21  H    0.000044  -0.000002   0.000000  -0.006497  -0.000002   0.000044
    22  H    0.000033   0.000020   0.000009   0.002140  -0.000001  -0.000001
    23  H   -0.000001  -0.000001   0.000000  -0.007420   0.000021   0.000034
    24  C    0.386848   0.403137   0.398542  -0.000218   0.000001  -0.000020
    25  H    0.532387  -0.021236  -0.031219  -0.000020   0.000000   0.000000
    26  H   -0.021236   0.498496  -0.021272   0.000001  -0.000000   0.000000
    27  H   -0.031219  -0.021272   0.536084   0.000029  -0.000000   0.000000
    28  C   -0.000020   0.000001   0.000029   5.787745   0.403031   0.386856
    29  H    0.000000  -0.000000  -0.000000   0.403031   0.498484  -0.021235
    30  H    0.000000   0.000000   0.000000   0.386856  -0.021235   0.532389
    31  H    0.000000  -0.000000  -0.000000   0.398405  -0.021263  -0.031224
    32  C    0.000185  -0.000143  -0.000608  -0.013999  -0.000147   0.000186
    33  H   -0.000000  -0.000000   0.000000  -0.000698   0.000000   0.000000
    34  H    0.000000  -0.000000  -0.000000  -0.000097  -0.000000   0.000000
    35  H    0.000000   0.000000   0.000003   0.000247  -0.000000  -0.000000
              31         32         33         34         35
     1  P    0.007297  -0.133626   0.008812  -0.010407   0.008438
     2  C   -0.028834  -0.061972  -0.000680   0.000617   0.000033
     3  C   -0.013249   0.043529  -0.000812   0.000154  -0.000063
     4  C    0.000827  -0.063275   0.000012   0.000616  -0.000624
     5  C    0.000019   0.043488  -0.000065   0.000158  -0.000811
     6  C   -0.001884   0.371885  -0.031359   0.036982  -0.030996
     7  C    0.000841  -0.274648  -0.003968  -0.056957  -0.004103
     8  C   -0.000822  -0.040701  -0.000015   0.000314   0.000016
     9  H    0.004898  -0.009172   0.000039   0.000010   0.000007
    10  H   -0.001049   0.001902  -0.000002  -0.000001   0.000001
    11  H    0.007886  -0.002474   0.000023   0.000000  -0.000000
    12  H   -0.008265   0.008265  -0.000251  -0.000016   0.000016
    13  H    0.000001   0.001910   0.000001  -0.000001  -0.000002
    14  H    0.000006  -0.009161   0.000007   0.000010   0.000038
    15  H    0.000000   0.008243   0.000016  -0.000015  -0.000247
    16  H   -0.000000  -0.002453  -0.000000   0.000000   0.000022
    17  H    0.000032  -0.001700   0.004644   0.000009  -0.001295
    18  H   -0.000002  -0.001703  -0.001271   0.000006   0.004603
    19  H   -0.000203  -0.041780  -0.008427  -0.004088   0.007799
    20  H    0.000013  -0.041604   0.007790  -0.004095  -0.008409
    21  H    0.000000   0.000898  -0.000000  -0.000000  -0.000000
    22  H    0.000000  -0.000789  -0.000003   0.000000   0.000009
    23  H    0.000009  -0.000828   0.000010   0.000000  -0.000003
    24  C    0.000029  -0.014095   0.000242  -0.000093  -0.000673
    25  H    0.000000   0.000185  -0.000000   0.000000   0.000000
    26  H   -0.000000  -0.000143  -0.000000  -0.000000   0.000000
    27  H   -0.000000  -0.000608   0.000000  -0.000000   0.000003
    28  C    0.398405  -0.013999  -0.000698  -0.000097   0.000247
    29  H   -0.021263  -0.000147   0.000000  -0.000000  -0.000000
    30  H   -0.031224   0.000186   0.000000   0.000000  -0.000000
    31  H    0.536081  -0.000612   0.000004  -0.000000   0.000000
    32  C   -0.000612   5.698324   0.391492   0.408566   0.391524
    33  H    0.000004   0.391492   0.533933  -0.021222  -0.031155
    34  H   -0.000000   0.408566  -0.021222   0.498703  -0.021222
    35  H    0.000000   0.391524  -0.031155  -0.021222   0.533833
 Mulliken charges:
               1
     1  P    1.143408
     2  C   -0.357635
     3  C   -0.268456
     4  C   -0.356722
     5  C   -0.269186
     6  C   -0.256680
     7  C   -0.378843
     8  C   -0.833865
     9  H    0.231991
    10  H    0.221990
    11  H    0.162617
    12  H    0.168032
    13  H    0.222000
    14  H    0.231954
    15  H    0.167878
    16  H    0.162826
    17  H    0.226252
    18  H    0.226254
    19  H    0.171451
    20  H    0.171716
    21  H    0.232403
    22  H    0.232385
    23  H    0.232251
    24  C   -0.630114
    25  H    0.153319
    26  H    0.172285
    27  H    0.151045
    28  C   -0.630296
    29  H    0.172286
    30  H    0.153319
    31  H    0.151057
    32  C   -0.654906
    33  H    0.152904
    34  H    0.172066
    35  H    0.153013
 Sum of Mulliken charges =   1.00000
 Mulliken charges with hydrogens summed into heavy atoms:
               1
     1  P    1.143408
     2  C    0.096346
     3  C    0.062194
     4  C    0.097232
     5  C    0.061518
     6  C    0.195825
     7  C   -0.035676
     8  C   -0.136825
    24  C   -0.153466
    28  C   -0.153634
    32  C   -0.176922
 Electronic spatial extent (au):  <R**2>=           6095.7903
 Charge=              1.0000 electrons
 Dipole moment (field-independent basis, Debye):
    X=             -3.1407    Y=              4.3411    Z=             11.5533  Tot=             12.7353
 Quadrupole moment (field-independent basis, Debye-Ang):
   XX=            -59.7187   YY=            -67.0661   ZZ=            -36.7937
   XY=             -1.7095   XZ=             -4.9624   YZ=             13.0253
 Traceless Quadrupole moment (field-independent basis, Debye-Ang):
   XX=             -5.1925   YY=            -12.5399   ZZ=             17.7325
   XY=             -1.7095   XZ=             -4.9624   YZ=             13.0253
 Octapole moment (field-independent basis, Debye-Ang**2):
  XXX=            168.1075  YYY=           -173.9692  ZZZ=           -466.5977  XYY=             57.1441
  XXY=            -54.1255  XXZ=           -164.3174  XZZ=             46.4699  YZZ=            -14.1888
  YYZ=           -183.4346  XYZ=            -11.4816
 Hexadecapole moment (field-independent basis, Debye-Ang**3):
 XXXX=          -2144.9247 YYYY=           -973.0831 ZZZZ=          -4121.6156 XXXY=            103.2266
 XXXZ=            259.8768 YYYX=             95.6604 YYYZ=           -698.0430 ZZZX=            183.7695
 ZZZY=           -535.9877 XXYY=           -517.4616 XXZZ=           -985.7602 YYZZ=           -872.1363
 XXYZ=           -188.7057 YYXZ=             62.7149 ZZXY=            -20.1962
 N-N= 7.904715708609D+02 E-N=-3.291716447620D+03  KE= 7.342544740661D+02
 Breneman (CHELPG) radii used.
 Generate Potential Derived Charges using the Breneman model, NDens= 1.
 Grid spacing= 0.300 Box extension= 2.800
 NStep X,Y,Z=   47     36     42   Total possible points=       71064
 Number of Points to Fit=   19007

 **********************************************************************

            Electrostatic Properties Using The SCF Density

 **********************************************************************

       Atomic Center    1 is at  -0.517529  0.922409  2.196475
       Atomic Center    2 is at  -1.578602 -0.419529  1.574880
       Atomic Center    3 is at  -2.817233  0.051645  0.795652
       Atomic Center    4 is at   0.821579  0.193483  3.190565
       Atomic Center    5 is at   1.747433  1.216780  3.868326
       Atomic Center    6 is at  -1.492953  2.078663  3.205574
       Atomic Center    7 is at  -2.155299  1.431870  4.432364
       Atomic Center    8 is at   0.191976  1.829277  0.797515
       Atomic Center    9 is at  -1.871870 -1.019658  2.441736
       Atomic Center   10 is at  -0.944482 -1.058051  0.950805
       Atomic Center   11 is at  -2.510601  0.671502 -0.052261
       Atomic Center   12 is at  -3.439696  0.680362  1.439136
       Atomic Center   13 is at   1.388376 -0.462169  2.521122
       Atomic Center   14 is at   0.347678 -0.452818  3.935745
       Atomic Center   15 is at   1.163297  1.855562  4.537312
       Atomic Center   16 is at   2.194180  1.871973  3.114472
       Atomic Center   17 is at  -2.243571  2.523873  2.545495
       Atomic Center   18 is at  -0.820244  2.887856  3.505436
       Atomic Center   19 is at  -2.811597  0.617152  4.111503
       Atomic Center   20 is at  -1.389269  0.985655  5.073871
       Atomic Center   21 is at   0.784264  1.152199  0.179514
       Atomic Center   22 is at   0.831830  2.633420  1.162823
       Atomic Center   23 is at  -0.606247  2.260998  0.192522
       Atomic Center   24 is at   2.855944  0.523053  4.663200
       Atomic Center   25 is at   3.478799 -0.097488  4.014087
       Atomic Center   26 is at   3.502528  1.259829  5.142618
       Atomic Center   27 is at   2.439569 -0.116869  5.445358
       Atomic Center   28 is at  -3.640416 -1.134926  0.289379
       Atomic Center   29 is at  -4.518278 -0.787126 -0.257551
       Atomic Center   30 is at  -3.053565 -1.764359 -0.384275
       Atomic Center   31 is at  -3.986851 -1.757431  1.118308
       Atomic Center   32 is at  -2.962969  2.454426  5.234364
       Atomic Center   33 is at  -3.757808  2.894038  4.626464
       Atomic Center   34 is at  -3.427197  1.982329  6.101743
       Atomic Center   35 is at  -2.325578  3.265628  5.595240
   19007 points will be used for fitting atomic charges
 Fitting point charges to electrostatic potential
 The dipole moment will be constrained to the correct value
 Charges from ESP fit, RMS=   0.00166 RRMS=   0.01523:
 ESP charges:
               1
     1  P    0.409316
     2  C   -0.180182
     3  C    0.200362
     4  C   -0.194916
     5  C    0.198887
     6  C   -0.075599
     7  C    0.156269
     8  C   -0.393164
     9  H    0.073490
    10  H    0.097798
    11  H   -0.007646
    12  H   -0.005006
    13  H    0.101944
    14  H    0.078802
    15  H   -0.003078
    16  H   -0.006709
    17  H    0.055057
    18  H    0.055986
    19  H    0.002326
    20  H    0.002378
    21  H    0.168368
    22  H    0.153032
    23  H    0.151582
    24  C   -0.269471
    25  H    0.081046
    26  H    0.090918
    27  H    0.084130
    28  C   -0.269437
    29  H    0.091217
    30  H    0.080140
    31  H    0.083902
    32  C   -0.268425
    33  H    0.082856
    34  H    0.091267
    35  H    0.082560
 Sum of ESP charges =   1.00000
 ESP charges with hydrogens summed into heavy atoms:
               1
     1  P    0.409316
     2  C   -0.008894
     3  C    0.187710
     4  C   -0.014170
     5  C    0.189100
     6  C    0.035444
     7  C    0.160973
     8  C    0.079818
    24  C   -0.013376
    28  C   -0.014179
    32  C   -0.011742
 Charge=   1.00000 Dipole=    -3.1407     4.3411    11.5533 Tot=    12.7353
 -----------------------------------------------------------------

              Electrostatic Properties (Atomic Units)

 -----------------------------------------------------------------
    Center     Electric         -------- Electric Field --------
               Potential          X             Y             Z
 -----------------------------------------------------------------
    1 Atom    -53.965022
    2 Atom    -14.604296
    3 Atom    -14.626324
    4 Atom    -14.604280
    5 Atom    -14.626336
    6 Atom    -14.604710
    7 Atom    -14.625753
    8 Atom    -14.604956
    9 Atom     -0.944593
   10 Atom     -0.943891
   11 Atom     -0.985769
   12 Atom     -0.986017
   13 Atom     -0.943876
   14 Atom     -0.944583
   15 Atom     -0.986040
   16 Atom     -0.985802
   17 Atom     -0.944355
   18 Atom     -0.944359
   19 Atom     -0.985183
   20 Atom     -0.985207
   21 Atom     -0.933217
   22 Atom     -0.933418
   23 Atom     -0.933406
   24 Atom    -14.663936
   25 Atom     -1.007726
   26 Atom     -1.008458
   27 Atom     -1.007527
   28 Atom    -14.663919
   29 Atom     -1.008447
   30 Atom     -1.007709
   31 Atom     -1.007510
   32 Atom    -14.663228
   33 Atom     -1.006868
   34 Atom     -1.007761
   35 Atom     -1.006878
 -----------------------------------------------------------------
 Calling FoFJK, ICntrl=      2127 FMM=F ISym2X=0 I1Cent= 0 IOpClX= 0 NMat=1 NMatS=1 NMatT=0.
 -------------------------------------------------------------------
 Center     Atomic                   Forces (Hartrees/Bohr)
 Number     Number              X              Y              Z
 -------------------------------------------------------------------
      1       15          -0.000000239    0.000000165   -0.000000123
      2        6          -0.000000782    0.000000666   -0.000000238
      3        6          -0.000001033    0.000001253    0.000000502
      4        6           0.000000045   -0.000000531   -0.000001023
      5        6           0.000000558   -0.000001019   -0.000000984
      6        6           0.000000439   -0.000000053    0.000000807
      7        6           0.000000846   -0.000000444    0.000000811
      8        6          -0.000000654    0.000000631   -0.000000049
      9        1          -0.000000532    0.000000349   -0.000000373
     10        1          -0.000001189    0.000000805   -0.000000795
     11        1          -0.000001272    0.000001563    0.000000639
     12        1          -0.000000616    0.000001109    0.000001050
     13        1          -0.000000382   -0.000000359   -0.000001558
     14        1           0.000000239   -0.000000755   -0.000001097
     15        1           0.000000978   -0.000001184   -0.000000455
     16        1           0.000000360   -0.000000783   -0.000000899
     17        1           0.000000248    0.000000381    0.000001322
     18        1           0.000000745   -0.000000329    0.000000857
     19        1           0.000000538   -0.000000180    0.000000745
     20        1           0.000001035   -0.000000891    0.000000285
     21        1          -0.000001073    0.000000784   -0.000000595
     22        1          -0.000000336    0.000000345    0.000000030
     23        1          -0.000000839    0.000001063    0.000000497
     24        6           0.000000760   -0.000001591   -0.000001774
     25        1           0.000000346   -0.000001437   -0.000002312
     26        1           0.000001120   -0.000001932   -0.000001736
     27        1           0.000000969   -0.000001842   -0.000001867
     28        6          -0.000001495    0.000001648    0.000000349
     29        1          -0.000001663    0.000002065    0.000000887
     30        1          -0.000001921    0.000001819   -0.000000177
     31        1          -0.000001263    0.000001360    0.000000232
     32        6           0.000001409   -0.000000637    0.000001608
     33        1           0.000001234   -0.000000205    0.000002147
     34        1           0.000001690   -0.000000912    0.000001606
     35        1           0.000001733   -0.000000922    0.000001680
 -------------------------------------------------------------------
 Cartesian Forces:  Max     0.000002312 RMS     0.000001059

 GradGradGradGradGradGradGradGradGradGradGradGradGradGradGradGradGradGrad
 Berny optimization.
 FormGI is forming the generalized inverse of G from B-inverse, IUseBI=4.
 Internal  Forces:  Max     0.000000010 RMS     0.000000002
 Search for a local minimum.
 Step number   1 out of a maximum of  210
 All quantities printed in internal units (Hartrees-Bohrs-Radians)
 Mixed Optimization -- En-DIIS/RFO-DIIS
 Second derivative matrix not updated -- first step.
 ITU=  0
     Eigenvalues ---    0.00271   0.00272   0.00278   0.00365   0.00365
     Eigenvalues ---    0.00368   0.00897   0.00898   0.00921   0.01007
     Eigenvalues ---    0.03535   0.03537   0.03602   0.03616   0.03623
     Eigenvalues ---    0.03623   0.04832   0.04832   0.04833   0.04863
     Eigenvalues ---    0.04864   0.04883   0.05186   0.05336   0.05398
     Eigenvalues ---    0.05485   0.05486   0.05491   0.05562   0.05565
     Eigenvalues ---    0.05566   0.06149   0.06158   0.08089   0.08089
     Eigenvalues ---    0.08106   0.08723   0.08814   0.08819   0.12026
     Eigenvalues ---    0.12026   0.12039   0.12408   0.12476   0.12479
     Eigenvalues ---    0.14540   0.14828   0.16000   0.16000   0.16000
     Eigenvalues ---    0.16000   0.16000   0.16000   0.16000   0.16000
     Eigenvalues ---    0.16000   0.16000   0.16000   0.16000   0.21883
     Eigenvalues ---    0.21885   0.21885   0.21936   0.21952   0.21952
     Eigenvalues ---    0.24589   0.24595   0.24718   0.25203   0.28747
     Eigenvalues ---    0.28756   0.28795   0.29393   0.29394   0.29416
     Eigenvalues ---    0.34227   0.34228   0.34315   0.34316   0.34323
     Eigenvalues ---    0.34323   0.34328   0.34333   0.34336   0.34338
     Eigenvalues ---    0.34355   0.34356   0.34468   0.34469   0.34472
     Eigenvalues ---    0.34474   0.34482   0.34483   0.34651   0.34673
     Eigenvalues ---    0.34673   0.34674   0.34735   0.34738
 RFO step:  Lambda= 0.00000000D+00 EMin= 2.70773946D-03
 Linear search not attempted -- first point.
 Iteration  1 RMS(Cart)=  0.00000010 RMS(Int)=  0.00000000
 Variable       Old X    -DE/DX   Delta X   Delta X   Delta X     New X
                                 (Linear)    (Quad)   (Total)
    R1        3.43964  -0.00000   0.00000  -0.00000  -0.00000   3.43964
    R2        3.43949  -0.00000   0.00000  -0.00000  -0.00000   3.43949
    R3        3.43632   0.00000   0.00000   0.00000   0.00000   3.43632
    R4        3.42395   0.00000   0.00000   0.00000   0.00000   3.42395
    R5        2.90515  -0.00000   0.00000  -0.00000  -0.00000   2.90515
    R6        2.06802   0.00000   0.00000   0.00000   0.00000   2.06802
    R7        2.06948   0.00000   0.00000   0.00000   0.00000   2.06948
    R8        2.06768   0.00000   0.00000   0.00000   0.00000   2.06768
    R9        2.06734   0.00000   0.00000   0.00000   0.00000   2.06734
   R10        2.89189  -0.00000   0.00000  -0.00000  -0.00000   2.89189
   R11        2.90533  -0.00000   0.00000  -0.00000  -0.00000   2.90533
   R12        2.06948   0.00000   0.00000   0.00000   0.00000   2.06948
   R13        2.06800  -0.00000   0.00000  -0.00000  -0.00000   2.06800
   R14        2.06733   0.00000   0.00000   0.00000   0.00000   2.06733
   R15        2.06764  -0.00000   0.00000  -0.00000  -0.00000   2.06764
   R16        2.89189  -0.00000   0.00000  -0.00000  -0.00000   2.89189
   R17        2.90432  -0.00000   0.00000  -0.00000  -0.00000   2.90432
   R18        2.06780   0.00000   0.00000   0.00000   0.00000   2.06780
   R19        2.06772   0.00000   0.00000   0.00000   0.00000   2.06772
   R20        2.06789   0.00000   0.00000   0.00000   0.00000   2.06789
   R21        2.06788   0.00000   0.00000   0.00000   0.00000   2.06788
   R22        2.89144  -0.00000   0.00000  -0.00000  -0.00000   2.89144
   R23        2.06246  -0.00000   0.00000  -0.00000  -0.00000   2.06246
   R24        2.06102   0.00000   0.00000   0.00000   0.00000   2.06102
   R25        2.06107   0.00000   0.00000   0.00000   0.00000   2.06107
   R26        2.06523  -0.00000   0.00000  -0.00000  -0.00000   2.06523
   R27        2.06210  -0.00000   0.00000  -0.00000  -0.00000   2.06210
   R28        2.06546  -0.00000   0.00000  -0.00000  -0.00000   2.06546
   R29        2.06209  -0.00000   0.00000  -0.00000  -0.00000   2.06209
   R30        2.06525  -0.00000   0.00000  -0.00000  -0.00000   2.06525
   R31        2.06547  -0.00000   0.00000  -0.00000  -0.00000   2.06547
   R32        2.06540  -0.00000   0.00000  -0.00000  -0.00000   2.06540
   R33        2.06208  -0.00000   0.00000  -0.00000  -0.00000   2.06208
   R34        2.06538  -0.00000   0.00000  -0.00000  -0.00000   2.06538
    A1        1.89669  -0.00000   0.00000  -0.00000  -0.00000   1.89669
    A2        1.92367   0.00000   0.00000   0.00000   0.00000   1.92367
    A3        1.91092   0.00000   0.00000   0.00000   0.00000   1.91092
    A4        1.92434   0.00000   0.00000   0.00000   0.00000   1.92434
    A5        1.91139   0.00000   0.00000   0.00000   0.00000   1.91139
    A6        1.89680  -0.00000   0.00000  -0.00000  -0.00000   1.89680
    A7        2.00074   0.00000   0.00000   0.00000   0.00000   2.00074
    A8        1.86504   0.00000   0.00000   0.00000   0.00000   1.86504
    A9        1.86181  -0.00000   0.00000  -0.00000  -0.00000   1.86181
   A10        1.93228  -0.00000   0.00000  -0.00000  -0.00000   1.93228
   A11        1.93519   0.00000   0.00000   0.00000   0.00000   1.93519
   A12        1.86172   0.00000   0.00000   0.00000   0.00000   1.86172
   A13        1.91838   0.00000   0.00000   0.00000   0.00000   1.91838
   A14        1.91392  -0.00000   0.00000  -0.00000  -0.00000   1.91392
   A15        1.94275  -0.00000   0.00000  -0.00000  -0.00000   1.94275
   A16        1.86471  -0.00000   0.00000  -0.00000  -0.00000   1.86471
   A17        1.91095   0.00000   0.00000   0.00000   0.00000   1.91095
   A18        1.91148   0.00000   0.00000   0.00000   0.00000   1.91148
   A19        2.00125   0.00000   0.00000   0.00000   0.00000   2.00125
   A20        1.86157  -0.00000   0.00000  -0.00000  -0.00000   1.86157
   A21        1.86484  -0.00000   0.00000  -0.00000  -0.00000   1.86484
   A22        1.93509  -0.00000   0.00000   0.00000   0.00000   1.93509
   A23        1.93230  -0.00000   0.00000  -0.00000  -0.00000   1.93230
   A24        1.86168   0.00000   0.00000   0.00000   0.00000   1.86168
   A25        1.91417  -0.00000   0.00000  -0.00000  -0.00000   1.91417
   A26        1.91848  -0.00000   0.00000  -0.00000  -0.00000   1.91848
   A27        1.94279  -0.00000   0.00000  -0.00000  -0.00000   1.94279
   A28        1.86470  -0.00000   0.00000  -0.00000  -0.00000   1.86470
   A29        1.91117   0.00000   0.00000   0.00000   0.00000   1.91117
   A30        1.91088   0.00000   0.00000   0.00000   0.00000   1.91088
   A31        1.98946   0.00000   0.00000   0.00000   0.00000   1.98946
   A32        1.86703  -0.00000   0.00000  -0.00000  -0.00000   1.86703
   A33        1.86767  -0.00000   0.00000  -0.00000  -0.00000   1.86767
   A34        1.93597   0.00000   0.00000   0.00000   0.00000   1.93597
   A35        1.93631   0.00000   0.00000   0.00000   0.00000   1.93631
   A36        1.86101   0.00000   0.00000   0.00000   0.00000   1.86101
   A37        1.91532  -0.00000   0.00000  -0.00000  -0.00000   1.91532
   A38        1.91545  -0.00000   0.00000   0.00000   0.00000   1.91545
   A39        1.94403   0.00000   0.00000   0.00000   0.00000   1.94403
   A40        1.86309   0.00000   0.00000  -0.00000  -0.00000   1.86309
   A41        1.91205  -0.00000   0.00000   0.00000   0.00000   1.91205
   A42        1.91214  -0.00000   0.00000   0.00000   0.00000   1.91214
   A43        1.91687   0.00000   0.00000   0.00000   0.00000   1.91687
   A44        1.91787  -0.00000   0.00000  -0.00000  -0.00000   1.91787
   A45        1.91752  -0.00000   0.00000  -0.00000  -0.00000   1.91752
   A46        1.90571   0.00000   0.00000   0.00000   0.00000   1.90571
   A47        1.90566   0.00000   0.00000   0.00000   0.00000   1.90566
   A48        1.90002   0.00000   0.00000  -0.00000  -0.00000   1.90002
   A49        1.94091  -0.00000   0.00000   0.00000   0.00000   1.94091
   A50        1.92980   0.00000   0.00000   0.00000   0.00000   1.92980
   A51        1.94031   0.00000   0.00000  -0.00000  -0.00000   1.94031
   A52        1.88244   0.00000   0.00000   0.00000   0.00000   1.88244
   A53        1.88569  -0.00000   0.00000  -0.00000  -0.00000   1.88569
   A54        1.88245  -0.00000   0.00000  -0.00000  -0.00000   1.88245
   A55        1.92989   0.00000   0.00000   0.00000   0.00000   1.92989
   A56        1.94083  -0.00000   0.00000  -0.00000  -0.00000   1.94083
   A57        1.94035   0.00000   0.00000   0.00000   0.00000   1.94035
   A58        1.88242   0.00000   0.00000   0.00000   0.00000   1.88242
   A59        1.88248  -0.00000   0.00000  -0.00000  -0.00000   1.88248
   A60        1.88563  -0.00000   0.00000  -0.00000  -0.00000   1.88563
   A61        1.94030   0.00000   0.00000   0.00000   0.00000   1.94030
   A62        1.93058   0.00000   0.00000   0.00000   0.00000   1.93058
   A63        1.94040   0.00000   0.00000   0.00000   0.00000   1.94040
   A64        1.88256  -0.00000   0.00000  -0.00000  -0.00000   1.88256
[...]
 -0.00626374,-0.00634276,-0.08650247,0.14299855,-0.00006451,-0.00012798
 ,0.00014004,0.00090149,0.00011994,0.00017895,0.00464548,-0.00576505,-0
 .00701572,0.00001933,0.00002170,0.00001315,-0.00001278,-0.00000562,-0.
 00000961,0.00014683,0.00007152,0.00003967,0.00002535,0.00007562,0.0000
 0494,0.00001046,0.00001912,0.00001807,0.00010141,-0.00006838,-0.000105
 37,-0.00070782,-0.00003041,-0.00017713,-0.00048663,0.00029821,0.000647
 92,-0.00140473,-0.00136840,0.00059502,-0.00002891,-0.00000538,-0.00000
 006,0.00000134,-0.00000966,-0.00001644,0.00000305,0.00000997,0.0000089
 3,0.00000396,0.00000316,0.00000009,-0.00001668,0.00007000,0.00000552,-
 0.00006893,0.00004233,0.00002905,0.00000864,-0.00002638,0.00002540,-0.
 00001638,-0.00001084,-0.00001784,-0.00001509,-0.00001394,0.00001020,-0
 .00000735,0.00001066,-0.00001751,0.00001925,0.00003062,-0.00001722,0.0
 0000251,0.00000289,0.00000126,-0.00000511,-0.00000040,0.00000144,0.000
 00102,0.00000153,0.00000118,0.00000040,-0.00000206,-0.00000332,0.08841
 386,-0.09095847,-0.14685841,-0.00860447,0.00994444,0.01121096,-0.09614
 856,0.10224730,0.15614576,0.00022700,-0.00021923,0.00006466,0.00075901
 ,-0.00011664,0.00136856,-0.00726642,-0.01024824,0.01315345,0.00003837,
 0.00006301,0.00002694,-0.00000514,-0.00002143,-0.00000743,0.00007534,0
 .00003809,0.00000914,-0.00005347,-0.00001878,-0.00000423,0.00004978,0.
 00006922,0.00007321,-0.00033002,0.00005823,-0.00061259,-0.00008682,-0.
 00003435,0.00009349,-0.00118633,-0.00284141,-0.00155230,0.00058328,0.0
 0068460,-0.00038427,-0.00001543,-0.00000318,0.00000109,-0.00001346,-0.
 00000330,-0.00003353,0.00000005,0.00000335,0.00000377,0.00000841,0.000
 00860,0.00000015,-0.00001694,0.00004625,0.00002246,-0.00002753,0.00001
 967,0.00000282,0.00003933,-0.00001466,0.00000595,-0.00000813,0.0000004
 3,-0.00001537,-0.00000061,0.00000169,0.00000808,-0.00001414,0.00004554
 ,-0.00008265,0.00002880,0.00009709,-0.00005152,0.00000405,0.00000975,0
 .00000218,-0.00000316,-0.00000167,0.00000085,0.00000376,0.00000038,0.0
 0000220,-0.00000082,-0.00000094,-0.00000465,-0.07266783,-0.04501435,0.
 06224577,0.00973848,0.01477857,-0.02016733,-0.00590792,-0.01051760,0.0
 1330206,0.07603576,0.00032182,-0.00002022,0.00026652,0.00117827,0.0008
 8888,0.00045513,-0.00869813,-0.01636814,0.01980954,0.00001447,-0.00003
 398,-0.00004053,-0.00001567,0.00002442,0.00000310,0.00003498,-0.000004
 32,-0.00001288,-0.00011151,-0.00014268,-0.00000719,0.00007328,-0.00003
 513,0.00005139,-0.00059071,0.00044202,-0.00054926,-0.00007351,0.000000
 91,-0.00013744,-0.00294630,-0.00336626,-0.00240983,0.00068900,0.000570
 32,0.00030046,0.00000909,-0.00000258,0.00000098,-0.00001888,0.00001240
 ,-0.00000729,-0.00000056,-0.00000677,-0.00000209,0.00000779,0.00000328
 ,-0.00000320,-0.00004336,0.00004263,0.00003416,0.00001145,0.00001658,-
 0.00002751,0.00000685,0.00002979,-0.00000613,0.00003161,0.00002512,-0.
 00000180,0.00000473,0.00000810,-0.00001186,-0.00003162,0.00004973,-0.0
 0007430,0.00003591,0.00014048,-0.00006090,-0.00000029,-0.00001412,-0.0
 0000400,0.00000164,0.00000003,0.00000050,-0.00000503,0.00000150,-0.000
 00291,-0.00000097,0.00000386,-0.00000165,-0.04511386,-0.12865664,0.111
 30981,-0.00332396,-0.00621568,0.00770468,0.00541395,0.01175634,-0.0145
 7118,0.05310916,0.14082395,0.00020698,-0.00019775,0.00033983,0.0002858
 9,-0.00054501,0.00119577,-0.00502627,-0.00763625,0.00971117,0.00006878
 ,0.00010933,0.00001678,0.00001709,-0.00004765,0.00001612,0.00002783,0.
 00002686,-0.00000537,-0.00000733,-0.00001536,-0.00001007,-0.00008958,-
 0.00010251,-0.00004368,0.00041285,0.00025418,0.00006100,-0.00001075,0.
 00008629,-0.00014636,-0.00211922,-0.00254182,0.00032745,0.00034481,0.0
 0073018,0.00085186,-0.00000204,0.00000442,-0.00000668,-0.00000890,0.00
 001150,-0.00000296,-0.00000091,0.00000036,-0.00000110,0.00000052,0.000
 00028,-0.00000033,-0.00000904,-0.00000920,0.00001016,-0.00000162,0.000
 00584,0.00000598,0.00000996,0.00002111,-0.00000407,0.00000875,0.000008
 51,0.00000664,-0.00001264,0.00000287,-0.00000527,-0.00005138,0.0000163
 5,0.00000004,0.00001378,0.00005731,-0.00005649,0.00000631,0.00002187,0
 .00000085,0.00000083,-0.00000036,-0.00000142,0.00000632,-0.00000400,0.
 00000456,-0.00000196,-0.00000094,0.00000211,0.06302129,0.11276445,-0.2
 0247761,0.00557981,0.00781457,-0.01218931,0.00480069,0.01114512,-0.014
 85096,-0.06747565,-0.12198373,0.21724855,-0.00124658,-0.00166179,0.000
 74279,0.00003498,-0.00029665,0.00002822,0.00009078,0.00009673,0.000008
 10,-0.00001067,0.00028412,0.00017779,0.00006203,0.00005416,0.00008278,
 -0.01105186,0.00859851,0.01356562,-0.10733469,0.03892335,0.02696011,-0
 .00010823,0.00058388,0.00035242,-0.00000918,0.00042864,-0.00004915,0.0
 0008128,0.00014270,-0.00016565,0.00000316,-0.00000752,-0.00008540,0.00
 007971,-0.00013107,0.00009304,-0.00012169,-0.00004360,0.00002341,-0.00
 003131,-0.00017501,-0.00001125,0.00004390,0.00004927,-0.00001441,-0.00
 001096,0.00000186,0.00001955,0.00137206,-0.00013946,-0.00159842,0.0003
 6759,0.00116777,-0.00034858,0.01151914,-0.01278489,-0.01041325,-0.0135
 8207,0.01765610,0.01398805,-0.00007037,-0.00012168,0.00014557,0.000020
 62,0.00003911,-0.00006261,0.00000332,-0.00002011,-0.00001220,0.0000196
 1,-0.00000651,-0.00003280,0.00000438,-0.00000950,0.00000215,-0.0000146
 9,-0.00000111,0.00000087,0.00000885,-0.00000592,0.00001114,0.00000551,
 -0.00000842,0.00003029,-0.00000915,-0.00000146,-0.00002165,-0.00000077
 ,-0.00000116,-0.00000861,0.00002721,0.00003385,0.00000640,0.53894292,-
 0.00135814,-0.00359756,0.00291605,-0.00016763,-0.00008443,-0.00007725,
 -0.00008549,0.00017104,0.00002350,0.00012757,0.00015017,0.00017293,-0.
 00001502,0.00017825,0.00009283,-0.00668655,0.01009568,0.00616155,0.040
 37410,-0.13038131,-0.03997584,-0.00122762,0.00176197,0.00126066,0.0000
 7022,0.00033177,0.00004012,0.00016273,0.00013709,-0.00011266,-0.000008
 88,-0.00000453,-0.00008122,0.00000512,-0.00007241,0.00003523,-0.000049
 07,0.00004864,-0.00017001,-0.00015192,0.00011917,-0.00009678,0.0000189
 6,-0.00002008,0.00002340,0.00005336,0.00001470,-0.00000944,-0.00071865
 ,0.00069486,0.00026478,-0.00041606,0.00117221,0.00096238,0.01482528,-0
 .01778157,-0.01403409,0.00776205,-0.01001684,-0.00807423,-0.00028062,-
 0.00048413,0.00060192,0.00006880,0.00006665,-0.00012479,0.00005689,0.0
 0004852,-0.00011362,0.00000353,-0.00008122,-0.00002221,0.00001544,-0.0
 0000608,-0.00000520,-0.00005030,0.00000810,-0.00001718,-0.00000738,0.0
 0003058,-0.00000317,0.00004123,-0.00007144,0.00002160,0.00002504,0.000
 02701,0.00002699,0.00000166,-0.00000728,-0.00001651,0.00000458,0.00004
 289,0.00000054,0.03844210,0.52312014,0.00063467,0.00338769,-0.00337690
 ,0.00033316,-0.00011790,-0.00000027,0.00012917,-0.00011219,0.00002641,
 -0.00011495,0.00016582,-0.00018306,0.00006127,-0.00015304,0.00004408,0
 .01942491,-0.01643467,-0.02208310,0.02636680,-0.03780617,-0.10348034,0
 .00104584,-0.00143421,-0.00072687,-0.00011177,-0.00010977,-0.00006932,
 -0.00012725,-0.00009627,-0.00004331,0.00001788,0.00000379,0.00004179,-
 0.00001092,0.00003661,0.00001701,-0.00001984,-0.00016071,0.00024941,0.
 00017911,-0.00043981,0.00016056,0.00004989,0.00017892,0.00000085,-0.00
 010356,-0.00001841,0.00003729,0.00004615,-0.00137906,0.00127523,-0.001
 15036,-0.00059368,0.00180699,0.00627217,-0.00844181,-0.00627863,-0.009
 46678,0.01248545,0.01107621,0.00020575,0.00036492,-0.00045115,-0.00005
 256,-0.00002099,0.00007419,-0.00006318,-0.00005950,0.00010593,0.000020
 87,0.00005278,0.00001054,-0.00001723,0.00000466,0.00000410,-0.00000051
 ,-0.00001027,0.00000665,0.00002868,-0.00003290,0.00003003,-0.00004714,
 0.00003660,0.00001423,-0.00001132,-0.00001423,-0.00001837,-0.00000005,
 0.00001562,0.00001061,0.00000094,-0.00001621,-0.00000026,0.02624197,-0
 .04012839,0.54324140,0.00016235,0.00015465,-0.00007114,0.00005225,-0.0
 0000699,-0.00002255,-0.00007654,0.00003310,0.00003474,0.00006658,-0.00
 004531,-0.00016513,0.00003614,-0.00007735,-0.00002464,0.00048056,-0.00
 023338,-0.00109739,-0.01322222,0.00689979,-0.00858036,0.00001618,-0.00
 001841,0.00001531,-0.00001377,-0.00005309,-0.00001194,-0.00000672,-0.0
 0002074,0.00001327,0.00000180,-0.00000308,0.00001749,0.00002633,0.0000
 2467,-0.00002024,0.00003512,-0.00004488,0.00008901,0.00003751,-0.00009
 788,0.00002654,0.00002414,0.00004794,-0.00000243,-0.00002760,0.0000050
 2,0.00002025,-0.00019432,-0.00014989,0.00085805,-0.00013040,0.00003489
 ,-0.00005868,0.00083535,-0.00024417,0.00032779,-0.00048834,0.00222683,
 0.00226310,0.00000073,-0.00000858,-0.00000041,-0.00001509,0.00000833,-
 0.00000276,-0.00000529,0.00000724,0.00002634,0.00000540,0.00002174,0.0
 0001214,-0.00001066,0.00000626,0.00000416,0.00000592,-0.00000321,0.000
 00032,0.00000871,-0.00001497,0.00000583,0.00003489,-0.00000814,-0.0000
 0907,0.00000403,0.00000576,0.00000502,-0.00000638,-0.00001122,-0.00000
 466,-0.00000687,-0.00000818,0.00000224,-0.18428304,0.07391356,-0.10723
 332,0.19897274,-0.00013583,-0.00000990,0.00039018,-0.00001575,-0.00000
 795,0.00000243,0.00011495,-0.00011733,-0.00006275,-0.00002943,-0.00007
 599,0.00007386,-0.00001881,0.00001500,-0.00002811,-0.00100705,0.000607
 60,0.00065109,0.01710951,-0.01056424,0.01266109,-0.00002747,-0.0000356
 5,-0.00005152,0.00003331,0.00002651,0.00000902,-0.00003191,0.00000589,
 -0.00001360,-0.00003405,0.00001698,0.00002267,-0.00001176,0.00003182,-
 0.00000617,0.00001933,0.00004887,-0.00005936,-0.00003582,0.00012767,-0
 .00003076,-0.00002288,-0.00005400,-0.00001395,0.00002208,0.00000591,-0
 .00000602,0.00010845,0.00051630,-0.00053354,-0.00002578,0.00000870,-0.
 00017170,-0.00043388,0.00038969,0.00066453,0.00238325,-0.00240340,-0.0
 0296336,0.00000848,0.00000552,-0.00000364,-0.00001034,-0.00000315,0.00
 000675,0.00001178,0.00001969,-0.00000400,-0.00000926,-0.00000697,-0.00
 000113,0.00000531,-0.00000173,-0.00000065,0.00000870,0.00000341,-0.000
 00035,-0.00000929,0.00000501,-0.00000847,-0.00004304,0.00003305,0.0000
 0253,-0.00000635,-0.00001105,-0.00002163,-0.00000241,0.00001340,0.0000
 1481,0.00001196,-0.00002060,-0.00000053,0.07340920,-0.08743468,0.05751
 904,-0.08444616,0.09398195,-0.00005467,-0.00030105,0.00041661,-0.00005
 012,0.00003132,0.00002191,0.00002633,-0.00001518,-0.00002385,0.0000615
 1,-0.00004484,-0.00002459,0.00000242,-0.00001750,-0.00004444,0.0002822
 0,-0.00046376,0.00174989,0.01530146,-0.00773685,0.00978331,-0.00009347
 ,0.00010006,0.00005544,0.00001443,0.00001077,0.00001117,0.00000990,0.0
 0001338,0.00000235,-0.00000523,0.00000658,0.00000174,-0.00002682,0.000
 00541,0.00001479,0.00004104,0.00004523,-0.00004470,-0.00004960,0.00009
 797,-0.00004519,-0.00002058,-0.00002238,-0.00000542,0.00001541,0.00000
 414,0.00000154,-0.00039737,0.00020179,-0.00002685,-0.00000591,0.000053
 83,-0.00010762,-0.00047256,0.00086030,0.00078483,0.00282604,-0.0028791
 0,-0.00131595,-0.00001473,-0.00002429,0.00003372,0.00000729,0.00000366
 ,-0.00000883,0.00000575,0.00001052,-0.00001911,0.00000105,0.00000299,0
 .00000106,-0.00000158,0.00000225,0.00000576,0.00000751,0.00000073,-0.0
 0000266,-0.00000373,-0.00000490,-0.00000548,-0.00001806,-0.00000257,0.
 00000679,0.00000251,-0.00000103,0.00000375,0.00000610,0.00000838,0.000
 00153,-0.00000133,0.00000531,-0.00000276,-0.10834039,0.05868366,-0.132
 17320,0.11644168,-0.06168730,0.14120910,0.00036758,-0.00090845,0.00058
 380,-0.00014801,0.00008937,0.00004998,-0.00003673,0.00002591,-0.000017
 20,0.00002335,-0.00002393,0.00002183,0.00000157,0.00005092,-0.00000918
 ,-0.00137995,0.00285819,0.00160824,-0.00818981,-0.00767196,0.01274237,
 -0.00029531,0.00039809,0.00021477,0.00002199,0.00000634,0.00000627,0.0
 0005597,0.00004783,0.00001316,-0.00000455,-0.00000138,-0.00000627,-0.0
 0000671,0.00000515,-0.00000129,-0.00000142,0.00000997,-0.00003288,-0.0
 0001855,0.00002542,-0.00000199,0.00001057,-0.00002544,0.00002925,0.000
 01650,0.00000280,-0.00001376,0.00005827,-0.00001107,0.00015759,0.00024
 693,0.00027968,-0.00032646,0.00067555,-0.00001046,-0.00038962,0.000024
 24,-0.00055446,-0.00030709,-0.00005675,-0.00011249,0.00011886,0.000013
 52,0.00000181,-0.00001754,0.00001705,0.00001937,-0.00003748,-0.0000072
 6,-0.00003629,0.00002006,0.00000130,0.00000556,-0.00001121,-0.00001533
 ,0.00000229,-0.00000517,-0.00000481,0.00002266,-0.00000554,0.00000832,
 -0.00001774,0.00000174,0.00000875,0.00000661,0.00000374,-0.00000320,-0
 .00000058,-0.00000078,0.00000143,0.00000045,-0.00000123,-0.09385572,-0
 .04945201,0.08867943,0.01129112,0.01058007,-0.01930962,0.09949379,0.00
 033183,0.00128089,-0.00077131,-0.00000034,0.00004688,0.00005833,0.0000
 2755,-0.00004444,-0.00000236,-0.00005405,-0.00000813,-0.00001491,0.000
 00362,-0.00004612,-0.00002258,0.00272088,-0.00288306,-0.00274869,0.010
 21678,0.01014604,-0.01959279,0.00038993,-0.00056132,-0.00038390,-0.000
 01770,-0.00004690,-0.00001376,-0.00001843,-0.00001231,0.00001756,0.000
 00398,-0.00000131,0.00001657,-0.00000028,0.00001263,0.00000070,0.00000
 578,-0.00001220,0.00003190,0.00003269,-0.00002635,0.00002438,-0.000002
 31,0.00000305,0.00000398,-0.00001317,-0.00000600,-0.00000060,-0.000102
 20,-0.00025031,-0.00005854,0.00027161,-0.00009009,0.00003514,-0.000643
 58,0.00105415,0.00028584,-0.00044171,0.00100918,0.00055878,0.00008784,
 0.00014901,-0.00019038,-0.00001506,-0.00002523,0.00003998,-0.00002014,
 -0.00002188,0.00002956,0.00000100,0.00002194,0.00000727,-0.00000469,0.
 00000202,-0.00000080,0.00000795,-0.00000453,0.00000561,0.00000326,-0.0
 0000391,0.00000297,-0.00001134,0.00002270,-0.00000832,-0.00000599,-0.0
 0000860,-0.00000567,-0.00000126,0.00000167,0.00000502,-0.00000167,-0.0
 0001135,-0.00000037,-0.05069633,-0.10019180,0.09546703,-0.00568739,-0.
 00601514,0.00884014,0.05241132,0.10684357,0.00011582,0.00105432,-0.000
 03437,0.00007297,-0.00000972,-0.00003282,0.00001264,-0.00004640,0.0000
 2575,0.00004353,-0.00012417,-0.00015018,-0.00002281,-0.00004490,-0.000
 01004,0.00165593,-0.00294576,-0.00088267,0.00587892,0.00685651,-0.0128
 8166,0.00021457,-0.00039084,-0.00021852,-0.00000044,-0.00001834,-0.000
 00765,-0.00004205,-0.00003125,0.00000480,-0.00000677,0.00000080,0.0000
 1941,0.00002614,0.00003166,-0.00000873,0.00004954,-0.00002373,0.000061
 53,0.00001055,0.00000451,0.00001181,-0.00000463,-0.00000025,-0.0000168
 1,-0.00000920,-0.00000061,0.00000303,-0.00011237,-0.00018234,0.0004328
 4,-0.00001371,0.00001002,0.00008312,-0.00050166,0.00010015,0.00004436,
 0.00000481,-0.00002275,0.00074270,0.00004123,0.00010660,-0.00010844,-0
 .00002338,-0.00001438,0.00003042,-0.00000992,0.00000059,0.00002308,0.0
 0000024,0.00002612,-0.00000714,-0.00000071,-0.00000361,0.00000134,0.00
 001166,-0.00000158,0.00000838,-0.00000010,-0.00000675,0.00000296,0.000
 00537,0.00003737,-0.00002324,-0.00001055,-0.00000851,-0.00001155,-0.00
 000715,-0.00000864,0.00000618,0.00000145,-0.00002259,0.00000405,0.0891
 5749,0.09362410,-0.21442321,0.00760163,0.00763660,-0.01393878,-0.09914
 152,-0.10080801,0.23127400,0.00033673,0.00029876,-0.00028430,-0.000048
 24,0.00008474,0.00005958,-0.00006065,0.00002193,0.00002171,0.00000895,
 -0.00002914,-0.00003004,-0.00003003,0.00004445,0.00003682,0.00120022,0
 .00059030,-0.00059148,0.01110857,0.01513558,0.00749400,0.00002868,-0.0
 0008606,-0.00007576,-0.00001852,-0.00011646,0.00000057,0.00000300,-0.0
 0002857,0.00007088,0.00001172,-0.00000131,0.00001037,-0.00002289,0.000
 01254,-0.00001742,0.00000254,-0.00000799,-0.00000235,0.00001539,0.0000
 0638,0.00001499,0.00000500,-0.00002597,-0.00001373,0.00001130,-0.00001
 150,-0.00001708,-0.00014813,-0.00011608,0.00003352,0.00002019,-0.00037
 908,-0.00025818,-0.00123023,0.00318265,0.00278136,0.00109090,-0.000616
 08,-0.00049470,0.00001448,0.00002347,-0.00002542,-0.00000045,-0.000016
 44,0.00001489,-0.00000460,-0.00000637,0.00000214,-0.00000058,-0.000011
 43,-0.00001745,0.00000798,-0.00000572,0.00000219,-0.00000274,0.0000024
 9,0.00000150,-0.00000306,0.00000421,0.00000034,0.00000642,-0.00000587,
 -0.00000065,0.00000182,0.00000263,0.00001145,0.00000571,-0.00000275,-0
 .00000444,-0.00000899,0.00000425,-0.00000258,-0.14094606,-0.11529688,-
 0.05120790,-0.01361060,-0.01746911,-0.00618688,-0.00831370,-0.00877838
 ,-0.00499753,0.15056989,-0.00020176,-0.00000273,0.00026197,-0.00008026
 ,-0.00004804,0.00011798,0.00000184,0.00005122,0.00001356,0.00000599,-0
 .00000499,0.00002295,0.00005449,-0.00013106,-0.00010926,-0.00039554,0.
 00093562,0.00106654,-0.01253850,-0.01774354,-0.00746261,0.00007680,-0.
 00002658,-0.00000685,-0.00000826,0.00013406,-0.00000958,0.00005035,0.0
 0006347,-0.00003781,0.00000198,-0.00000324,-0.00002882,0.00003750,-0.0
 0004455,0.00003105,0.00002141,0.00002218,0.00001620,-0.00003227,0.0000
 2385,-0.00003405,-0.00000003,0.00002205,0.00000695,-0.00000768,0.00002
 046,0.00002889,0.00009910,0.00000398,-0.00006402,0.00044254,0.00050490
 ,-0.00066025,0.00306099,-0.00192948,-0.00223810,-0.00018276,0.00034196
 ,0.00057751,0.00000164,0.00001112,-0.00001708,-0.00000071,0.00000986,-
 0.00001606,-0.00000390,-0.00000606,0.00001022,0.00000025,0.00004515,0.
 00003515,-0.00001714,0.00000989,0.00000396,0.00002601,-0.00000311,0.00
 000061,0.00000194,-0.00001989,-0.00000835,0.00001276,-0.00000830,0.000
 01037,-0.00000290,0.00000217,-0.00000467,0.00000156,-0.00000603,-0.000
 00816,0.00000728,0.00001525,0.00000355,-0.11379916,-0.18798409,-0.0621
 3872,0.00779325,0.01089882,0.00421232,-0.00802356,-0.01032276,-0.00477
 420,0.12359679,0.20516842,0.00000125,-0.00022037,0.00023299,-0.0001103
 0,0.00001713,0.00006280,-0.00002026,0.00006011,0.00001534,-0.00001288,
 0.00003434,0.00006318,0.00000942,-0.00001893,-0.00005384,-0.00129165,-
 0.00041626,0.00072179,-0.00968225,-0.01289171,-0.00732213,-0.00002534,
 0.00006985,0.00003380,0.00001256,0.00011172,0.00000376,0.00006420,0.00
 006795,-0.00002741,0.00000746,-0.00000880,-0.00002838,0.00001807,-0.00
 002810,0.00003224,-0.00000657,0.00001653,-0.00002380,-0.00003012,0.000
 03501,-0.00001449,-0.00000303,-0.00001984,0.00004383,0.00001598,0.0000
 0445,-0.00001199,-0.00007940,-0.00006261,-0.00008645,0.00056627,0.0002
 1568,-0.00030309,0.00220389,-0.00226744,-0.00104862,0.00021296,0.00074
 056,0.00057564,-0.00000921,-0.00000352,0.00001420,0.00002760,-0.000000
 72,-0.00001439,-0.00000175,-0.00001056,-0.00001639,0.00000037,0.000005
 77,0.00002903,-0.00000722,0.00000603,-0.00000929,-0.00000044,-0.000002
 76,0.00000244,-0.00000299,0.00001251,-0.00000684,0.00001524,-0.0000119
 6,0.00000154,0.00000165,0.00000386,0.00000273,0.00000013,-0.00000619,-
 0.00000628,0.00000363,0.00001294,0.00000181,-0.05047339,-0.06184965,-0
 .07492551,-0.01046018,-0.01398604,-0.00631588,0.01538472,0.01919224,0.
 00997603,0.05367159,0.07119878,0.07840161\\0.00000024,-0.00000016,0.00
 000012,0.00000078,-0.00000067,0.00000024,0.00000104,-0.00000125,-0.000
 00050,-0.00000004,0.00000053,0.00000102,-0.00000056,0.00000102,0.00000
 098,-0.00000044,0.00000006,-0.00000081,-0.00000084,0.00000044,-0.00000
 082,0.00000065,-0.00000063,0.00000005,0.00000053,-0.00000035,0.0000003
 7,0.00000119,-0.00000081,0.00000079,0.00000127,-0.00000156,-0.00000064
 ,0.00000062,-0.00000111,-0.00000105,0.00000038,0.00000036,0.00000156,-
 0.00000024,0.00000075,0.00000110,-0.00000098,0.00000118,0.00000046,-0.
 00000036,0.00000078,0.00000090,-0.00000025,-0.00000038,-0.00000132,-0.
 00000075,0.00000033,-0.00000086,-0.00000054,0.00000018,-0.00000075,-0.
 00000104,0.00000089,-0.00000029,0.00000107,-0.00000078,0.00000059,0.00
 000034,-0.00000034,-0.00000003,0.00000084,-0.00000106,-0.00000050,-0.0
 0000076,0.00000159,0.00000178,-0.00000035,0.00000144,0.00000231,-0.000
 00112,0.00000193,0.00000174,-0.00000097,0.00000184,0.00000187,0.000001
 49,-0.00000165,-0.00000035,0.00000166,-0.00000206,-0.00000089,0.000001
 92,-0.00000182,0.00000018,0.00000126,-0.00000136,-0.00000023,-0.000001
 41,0.00000064,-0.00000161,-0.00000123,0.00000021,-0.00000215,-0.000001
 69,0.00000091,-0.00000161,-0.00000173,0.00000092,-0.00000168\\\@


 PICNIC:  A SNACK IN THE GRASS.
 Job cpu time:       0 days  2 hours 58 minutes 19.8 seconds.
 File lengths (MBytes):  RWF=    521 Int=      0 D2E=      0 Chk=     14 Scr=      2
 Normal termination of Gaussian 09 at Fri Mar 26 17:33:21 2021.
