 Entering Gaussian System, Link 0=g09
 Initial command:
 /apps/gaussian/g09_e01/g09/l1.exe "/rds/general/user/fdp18/home/gaussian/padua/forcefield_phosphonium/Gau-74188.inp" -scrdir="/rds/general/user/fdp18/home/gaussian/padua/forcefield_phosphonium/"
 Entering Link 1 = /apps/gaussian/g09_e01/g09/l1.exe PID=     74189.
  
 Copyright (c) 1988,1990,1992,1993,1995,1998,2003,2009,2015,
            Gaussian, Inc.  All Rights Reserved.
  
 This is part of the Gaussian(R) 09 program.  It is based on
 the Gaussian(R) 03 system (copyright 2003, Gaussian, Inc.),
 the Gaussian(R) 98 system (copyright 1998, Gaussian, Inc.),
 the Gaussian(R) 94 system (copyright 1995, Gaussian, Inc.),
 the Gaussian 92(TM) system (copyright 1992, Gaussian, Inc.),
 the Gaussian 90(TM) system (copyright 1990, Gaussian, Inc.),
 the Gaussian 88(TM) system (copyright 1988, Gaussian, Inc.),
 the Gaussian 86(TM) system (copyright 1986, Carnegie Mellon
 University), and the Gaussian 82(TM) system (copyright 1983,
 Carnegie Mellon University). Gaussian is a federally registered
 trademark of Gaussian, Inc.
  
 This software contains proprietary and confidential information,
 including trade secrets, belonging to Gaussian, Inc.
  
 This software is provided under written license and may be
 used, copied, transmitted, or stored only in accord with that
 written license.
  
 The following legend is applicable only to US Government
 contracts under FAR:
  
                    RESTRICTED RIGHTS LEGEND
  
 Use, reproduction and disclosure by the US Government is
 subject to restrictions as set forth in subparagraphs (a)
 and (c) of the Commercial Computer Software - Restricted
 Rights clause in FAR 52.227-19.
  
 Gaussian, Inc.
 340 Quinnipiac St., Bldg. 40, Wallingford CT 06492
  
  
 ---------------------------------------------------------------
 Warning -- This program may not be used in any manner that
 competes with the business of Gaussian, Inc. or will provide
 assistance to any competitor of Gaussian, Inc.  The licensee
 of this program is prohibited from giving any competitor of
 Gaussian, Inc. access to this program.  By using this program,
 the user acknowledges that Gaussian, Inc. is engaged in the
 business of creating and licensing software in the field of
 computational chemistry and represents and warrants to the
 licensee that it is not a competitor of Gaussian, Inc. and that
 it will not use this program in any manner prohibited above.
 ---------------------------------------------------------------
  

 Cite this work as:
 Gaussian 09, Revision E.01,
 M. J. Frisch, G. W. Trucks, H. B. Schlegel, G. E. Scuseria, 
 M. A. Robb, J. R. Cheeseman, G. Scalmani, V. Barone, B. Mennucci, 
 G. A. Petersson, H. Nakatsuji, M. Caricato, X. Li, H. P. Hratchian, 
 A. F. Izmaylov, J. Bloino, G. Zheng, J. L. Sonnenberg, M. Hada, 
 M. Ehara, K. Toyota, R. Fukuda, J. Hasegawa, M. Ishida, T. Nakajima, 
 Y. Honda, O. Kitao, H. Nakai, T. Vreven, J. A. Montgomery, Jr., 
 J. E. Peralta, F. Ogliaro, M. Bearpark, J. J. Heyd, E. Brothers, 
 K. N. Kudin, V. N. Staroverov, T. Keith, R. Kobayashi, J. Normand, 
 K. Raghavachari, A. Rendell, J. C. Burant, S. S. Iyengar, J. Tomasi, 
 M. Cossi, N. Rega, J. M. Millam, M. Klene, J. E. Knox, J. B. Cross, 
 V. Bakken, C. Adamo, J. Jaramillo, R. Gomperts, R. E. Stratmann, 
 O. Yazyev, A. J. Austin, R. Cammi, C. Pomelli, J. W. Ochterski, 
 R. L. Martin, K. Morokuma, V. G. Zakrzewski, G. A. Voth, 
 P. Salvador, J. J. Dannenberg, S. Dapprich, A. D. Daniels, 
 O. Farkas, J. B. Foresman, J. V. Ortiz, J. Cioslowski, 
 and D. J. Fox, Gaussian, Inc., Wallingford CT, 2013.
 
 ******************************************
 Gaussian 09:  ES64L-G09RevE.01 30-Nov-2015
                26-Mar-2021 
 ******************************************
 %nprocshared=24
 Will use up to   24 processors via shared memory.
 %mem=60GB
 %chk=P4441.chk
 ----------------------------------------------------------------------
 # opt=(maxcycles=400,verytight) freq EmpiricalDispersion=GD3BJ rb3lyp/
 6-311+g(d,p) int=ultrafine symmetry=none scf=(conver=10) pop=(minimal,
 CHELPG,Dipole)
 ----------------------------------------------------------------------
 1/6=400,7=1,14=-1,18=20,19=15,26=4,38=1/1,3;
 2/9=110,12=2,15=3,17=6,18=5,40=1/2;
 3/5=4,6=6,7=111,11=2,16=1,25=1,30=1,71=1,74=-5,75=-5,116=1,124=41/1,2,3;
 4//1;
 5/5=2,6=10,38=5/2;
 6/7=2,8=2,9=2,10=2,15=24,20=3,28=1/1,2;
 7/30=1/1,2,3,16;
 1/6=400,7=1,14=-1,18=20,19=15,26=4/3(2);
 2/9=110,15=3/2;
 99//99;
 2/9=110,15=3/2;
 3/5=4,6=6,7=111,11=2,16=1,25=1,30=1,71=1,74=-5,75=-5,116=1,124=41/1,2,3;
 4/5=5,16=3,69=1/1;
 5/5=2,6=10,38=5/2;
 7/30=1/1,2,3,16;
 1/6=400,7=1,14=-1,18=20,19=15,26=4/3(-5);
 2/9=110,15=3/2;
 6/7=2,8=2,9=2,10=2,15=24,19=2,20=3,28=1/1,2;
 99/9=1/99;
 -------------------
 Title Card Required
 -------------------
 Symbolic Z-matrix:
 Charge =  1 Multiplicity = 1
 P                    -0.51185   0.90713   2.19589 
 C                    -1.57491  -0.43891   1.58841 
 C                    -2.80974   0.02912   0.80387 
 C                     0.82077   0.19221   3.20776 
 C                     1.73623   1.22674   3.87953 
 C                    -1.48884   2.07939   3.18331 
 C                    -2.15575   1.44843   4.41419 
 C                     0.20736   1.79087   0.78697 
 H                    -1.87093  -1.02746   2.46213 
 H                    -0.94194  -1.08623   0.97244 
 H                    -2.50333   0.63971  -0.05196 
 H                    -3.43411   0.66587   1.439 
 H                     1.39429  -0.46964   2.55037 
 H                     0.34194  -0.446     3.9566 
 H                     1.14674   1.87249   4.53846 
 H                     2.18951   1.87624   3.12335 
 H                    -2.23595   2.51605   2.51382 
 H                    -0.8156    2.89095   3.475 
 H                    -2.8145    0.63052   4.10369 
 H                    -1.39455   1.00854   5.06722 
 H                     0.79927   1.10247   0.18126 
 H                     0.8492    2.59717   1.14387 
 H                    -0.58671   2.21701   0.17267 
 C                    -2.96905   2.47564   5.20973 
 H                    -3.72731   2.9176    4.55404 
 H                    -2.30953   3.2949    5.51638 
 C                    -3.64552  -1.15442   0.30268 
 H                    -3.94531  -1.76909   1.15861 
 H                    -3.02058  -1.79148  -0.3326 
 C                     2.84697   0.55609   4.69619 
 H                     3.43694  -0.08992   4.03696 
 H                     2.39306  -0.09949   5.4475 
 C                    -3.63982   1.86166   6.43862 
 H                    -2.90007   1.44128   7.12573 
 H                    -4.21174   2.61266   6.98655 
 H                    -4.32888   1.06086   6.15578 
 C                     3.76113   1.57312   5.37975 
 H                     4.54193   1.07097   5.95378 
 H                     4.25189   2.22043   4.64753 
 H                     3.20009   2.21034   6.06917 
 C                    -4.88436  -0.70497  -0.47223 
 H                    -4.60996  -0.11511  -1.3513 
 H                    -5.46114  -1.56495  -0.81732 
 H                    -5.54196  -0.09288   0.15148 
 

 GradGradGradGradGradGradGradGradGradGradGradGradGradGradGradGradGradGrad
 Berny optimization.
 Initialization pass.
                           ----------------------------
                           !    Initial Parameters    !
                           ! (Angstroms and Degrees)  !
 --------------------------                            --------------------------
 ! Name  Definition              Value          Derivative Info.                !
 --------------------------------------------------------------------------------
 ! R1    R(1,2)                  1.8196         estimate D2E/DX2                !
 ! R2    R(1,4)                  1.8196         estimate D2E/DX2                !
 ! R3    R(1,6)                  1.8176         estimate D2E/DX2                !
 ! R4    R(1,8)                  1.812          estimate D2E/DX2                !
 ! R5    R(2,3)                  1.536          estimate D2E/DX2                !
 ! R6    R(2,9)                  1.0943         estimate D2E/DX2                !
 ! R7    R(2,10)                 1.095          estimate D2E/DX2                !
 ! R8    R(3,11)                 1.0951         estimate D2E/DX2                !
 ! R9    R(3,12)                 1.0948         estimate D2E/DX2                !
 ! R10   R(3,27)                 1.5331         estimate D2E/DX2                !
 ! R11   R(4,5)                  1.5361         estimate D2E/DX2                !
 ! R12   R(4,13)                 1.095          estimate D2E/DX2                !
 ! R13   R(4,14)                 1.0942         estimate D2E/DX2                !
 ! R14   R(5,15)                 1.0948         estimate D2E/DX2                !
 ! R15   R(5,16)                 1.095          estimate D2E/DX2                !
 ! R16   R(5,30)                 1.5331         estimate D2E/DX2                !
 ! R17   R(6,7)                  1.5356         estimate D2E/DX2                !
 ! R18   R(6,17)                 1.0941         estimate D2E/DX2                !
 ! R19   R(6,18)                 1.0941         estimate D2E/DX2                !
 ! R20   R(7,19)                 1.0951         estimate D2E/DX2                !
 ! R21   R(7,20)                 1.0952         estimate D2E/DX2                !
 ! R22   R(7,24)                 1.5328         estimate D2E/DX2                !
 ! R23   R(8,21)                 1.0914         estimate D2E/DX2                !
 ! R24   R(8,22)                 1.0906         estimate D2E/DX2                !
 ! R25   R(8,23)                 1.0906         estimate D2E/DX2                !
 ! R26   R(24,25)                1.0955         estimate D2E/DX2                !
 ! R27   R(24,26)                1.0955         estimate D2E/DX2                !
 ! R28   R(24,33)                1.5287         estimate D2E/DX2                !
 ! R29   R(27,28)                1.0956         estimate D2E/DX2                !
 ! R30   R(27,29)                1.0954         estimate D2E/DX2                !
 ! R31   R(27,41)                1.5288         estimate D2E/DX2                !
 ! R32   R(30,31)                1.0954         estimate D2E/DX2                !
 ! R33   R(30,32)                1.0956         estimate D2E/DX2                !
 ! R34   R(30,37)                1.5288         estimate D2E/DX2                !
 ! R35   R(33,34)                1.0937         estimate D2E/DX2                !
 ! R36   R(33,35)                1.0915         estimate D2E/DX2                !
 ! R37   R(33,36)                1.0937         estimate D2E/DX2                !
 ! R38   R(37,38)                1.0915         estimate D2E/DX2                !
 ! R39   R(37,39)                1.0936         estimate D2E/DX2                !
 ! R40   R(37,40)                1.0937         estimate D2E/DX2                !
 ! R41   R(41,42)                1.0936         estimate D2E/DX2                !
 ! R42   R(41,43)                1.0915         estimate D2E/DX2                !
 ! R43   R(41,44)                1.0937         estimate D2E/DX2                !
 ! A1    A(2,1,4)              108.8375         estimate D2E/DX2                !
 ! A2    A(2,1,6)              110.1469         estimate D2E/DX2                !
 ! A3    A(2,1,8)              109.4563         estimate D2E/DX2                !
 ! A4    A(4,1,6)              110.1793         estimate D2E/DX2                !
 ! A5    A(4,1,8)              109.4714         estimate D2E/DX2                !
 ! A6    A(6,1,8)              108.7356         estimate D2E/DX2                !
 ! A7    A(1,2,3)              114.5062         estimate D2E/DX2                !
 ! A8    A(1,2,9)              106.8189         estimate D2E/DX2                !
 ! A9    A(1,2,10)             106.701          estimate D2E/DX2                !
 ! A10   A(3,2,9)              110.7465         estimate D2E/DX2                !
 ! A11   A(3,2,10)             110.947          estimate D2E/DX2                !
 ! A12   A(9,2,10)             106.7125         estimate D2E/DX2                !
 ! A13   A(2,3,11)             110.1288         estimate D2E/DX2                !
 ! A14   A(2,3,12)             109.8389         estimate D2E/DX2                !
 ! A15   A(2,3,27)             111.7158         estimate D2E/DX2                !
 ! A16   A(11,3,12)            106.7778         estimate D2E/DX2                !
 ! A17   A(11,3,27)            109.1166         estimate D2E/DX2                !
 ! A18   A(12,3,27)            109.1308         estimate D2E/DX2                !
 ! A19   A(1,4,5)              114.5227         estimate D2E/DX2                !
 ! A20   A(1,4,13)             106.6904         estimate D2E/DX2                !
 ! A21   A(1,4,14)             106.8129         estimate D2E/DX2                !
 ! A22   A(5,4,13)             110.9448         estimate D2E/DX2                !
 ! A23   A(5,4,14)             110.7511         estimate D2E/DX2                !
 ! A24   A(13,4,14)            106.7084         estimate D2E/DX2                !
 ! A25   A(4,5,15)             109.8497         estimate D2E/DX2                !
 ! A26   A(4,5,16)             110.13           estimate D2E/DX2                !
 ! A27   A(4,5,30)             111.723          estimate D2E/DX2                !
 ! A28   A(15,5,16)            106.7772         estimate D2E/DX2                !
 ! A29   A(15,5,30)            109.1174         estimate D2E/DX2                !
 ! A30   A(16,5,30)            109.1107         estimate D2E/DX2                !
 ! A31   A(1,6,7)              113.8224         estimate D2E/DX2                !
 ! A32   A(1,6,17)             106.9788         estimate D2E/DX2                !
 ! A33   A(1,6,18)             107.0068         estimate D2E/DX2                !
 ! A34   A(7,6,17)             110.9725         estimate D2E/DX2                !
 ! A35   A(7,6,18)             110.9989         estimate D2E/DX2                !
 ! A36   A(17,6,18)            106.6956         estimate D2E/DX2                !
 ! A37   A(6,7,19)             109.9292         estimate D2E/DX2                !
 ! A38   A(6,7,20)             109.9467         estimate D2E/DX2                !
 ! A39   A(6,7,24)             111.7839         estimate D2E/DX2                !
 ! A40   A(19,7,20)            106.6887         estimate D2E/DX2                !
 ! A41   A(19,7,24)            109.1771         estimate D2E/DX2                !
 ! A42   A(20,7,24)            109.1773         estimate D2E/DX2                !
 ! A43   A(1,8,21)             109.826          estimate D2E/DX2                !
 ! A44   A(1,8,22)             109.8588         estimate D2E/DX2                !
 ! A45   A(1,8,23)             109.8486         estimate D2E/DX2                !
 ! A46   A(21,8,22)            109.1933         estimate D2E/DX2                !
 ! A47   A(21,8,23)            109.1914         estimate D2E/DX2                !
 ! A48   A(22,8,23)            108.9015         estimate D2E/DX2                !
 ! A49   A(7,24,25)            109.0845         estimate D2E/DX2                !
 ! A50   A(7,24,26)            109.0868         estimate D2E/DX2                !
 ! A51   A(7,24,33)            112.3873         estimate D2E/DX2                !
 ! A52   A(25,24,26)           106.4107         estimate D2E/DX2                !
 ! A53   A(25,24,33)           109.8432         estimate D2E/DX2                !
 ! A54   A(26,24,33)           109.845          estimate D2E/DX2                !
 ! A55   A(3,27,28)            109.08           estimate D2E/DX2                !
 ! A56   A(3,27,29)            109.1196         estimate D2E/DX2                !
 ! A57   A(3,27,41)            112.3651         estimate D2E/DX2                !
 ! A58   A(28,27,29)           106.4333         estimate D2E/DX2                !
 ! A59   A(28,27,41)           109.8281         estimate D2E/DX2                !
 ! A60   A(29,27,41)           109.8342         estimate D2E/DX2                !
 ! A61   A(5,30,31)            109.1237         estimate D2E/DX2                !
 ! A62   A(5,30,32)            109.0794         estimate D2E/DX2                !
 ! A63   A(5,30,37)            112.3575         estimate D2E/DX2                !
 ! A64   A(31,30,32)           106.4357         estimate D2E/DX2                !
 ! A65   A(31,30,37)           109.8368         estimate D2E/DX2                !
 ! A66   A(32,30,37)           109.8277         estimate D2E/DX2                !
 ! A67   A(24,33,34)           111.2623         estimate D2E/DX2                !
 ! A68   A(24,33,35)           110.9229         estimate D2E/DX2                !
 ! A69   A(24,33,36)           111.2619         estimate D2E/DX2                !
 ! A70   A(34,33,35)           107.6682         estimate D2E/DX2                !
 ! A71   A(34,33,36)           107.8904         estimate D2E/DX2                !
 ! A72   A(35,33,36)           107.668          estimate D2E/DX2                !
 ! A73   A(30,37,38)           110.9069         estimate D2E/DX2                !
 ! A74   A(30,37,39)           111.2674         estimate D2E/DX2                !
 ! A75   A(30,37,40)           111.2659         estimate D2E/DX2                !
 ! A76   A(38,37,39)           107.6633         estimate D2E/DX2                !
 ! A77   A(38,37,40)           107.6679         estimate D2E/DX2                !
 ! A78   A(39,37,40)           107.9024         estimate D2E/DX2                !
 ! A79   A(27,41,42)           111.2648         estimate D2E/DX2                !
 ! A80   A(27,41,43)           110.9061         estimate D2E/DX2                !
 ! A81   A(27,41,44)           111.2662         estimate D2E/DX2                !
 ! A82   A(42,41,43)           107.6634         estimate D2E/DX2                !
 ! A83   A(42,41,44)           107.9035         estimate D2E/DX2                !
 ! A84   A(43,41,44)           107.6701         estimate D2E/DX2                !
 ! D1    D(4,1,2,3)            175.5583         estimate D2E/DX2                !
 ! D2    D(4,1,2,9)             52.568          estimate D2E/DX2                !
 ! D3    D(4,1,2,10)           -61.2821         estimate D2E/DX2                !
 ! D4    D(6,1,2,3)             54.6677         estimate D2E/DX2                !
 ! D5    D(6,1,2,9)            -68.3226         estimate D2E/DX2                !
 ! D6    D(6,1,2,10)           177.8274         estimate D2E/DX2                !
 ! D7    D(8,1,2,3)            -64.8347         estimate D2E/DX2                !
 ! D8    D(8,1,2,9)            172.175          estimate D2E/DX2                !
 ! D9    D(8,1,2,10)            58.325          estimate D2E/DX2                !
 ! D10   D(2,1,4,5)           -175.4626         estimate D2E/DX2                !
 ! D11   D(2,1,4,13)            61.3777         estimate D2E/DX2                !
 ! D12   D(2,1,4,14)           -52.46           estimate D2E/DX2                !
 ! D13   D(6,1,4,5)            -54.5919         estimate D2E/DX2                !
 ! D14   D(6,1,4,13)          -177.7516         estimate D2E/DX2                !
 ! D15   D(6,1,4,14)            68.4107         estimate D2E/DX2                !
 ! D16   D(8,1,4,5)             64.9398         estimate D2E/DX2                !
 ! D17   D(8,1,4,13)           -58.2199         estimate D2E/DX2                !
 ! D18   D(8,1,4,14)          -172.0577         estimate D2E/DX2                !
 ! D19   D(2,1,6,7)             60.0162         estimate D2E/DX2                !
 ! D20   D(2,1,6,17)           -62.9328         estimate D2E/DX2                !
 ! D21   D(2,1,6,18)          -176.9809         estimate D2E/DX2                !
 ! D22   D(4,1,6,7)            -60.0669         estimate D2E/DX2                !
 ! D23   D(4,1,6,17)           176.9841         estimate D2E/DX2                !
 ! D24   D(4,1,6,18)            62.936          estimate D2E/DX2                !
 ! D25   D(8,1,6,7)            179.9556         estimate D2E/DX2                !
 ! D26   D(8,1,6,17)            57.0067         estimate D2E/DX2                !
 ! D27   D(8,1,6,18)           -57.0415         estimate D2E/DX2                !
 ! D28   D(2,1,8,21)           -59.6644         estimate D2E/DX2                !
 ! D29   D(2,1,8,22)          -179.7825         estimate D2E/DX2                !
 ! D30   D(2,1,8,23)            60.445          estimate D2E/DX2                !
 ! D31   D(4,1,8,21)            59.5521         estimate D2E/DX2                !
 ! D32   D(4,1,8,22)           -60.566          estimate D2E/DX2                !
 ! D33   D(4,1,8,23)           179.6615         estimate D2E/DX2                !
 ! D34   D(6,1,8,21)           179.9681         estimate D2E/DX2                !
 ! D35   D(6,1,8,22)            59.85           estimate D2E/DX2                !
 ! D36   D(6,1,8,23)           -59.9225         estimate D2E/DX2                !
 ! D37   D(1,2,3,11)            57.6006         estimate D2E/DX2                !
 ! D38   D(1,2,3,12)           -59.7266         estimate D2E/DX2                !
 ! D39   D(1,2,3,27)           179.0277         estimate D2E/DX2                !
 ! D40   D(9,2,3,11)           178.4458         estimate D2E/DX2                !
 ! D41   D(9,2,3,12)            61.1186         estimate D2E/DX2                !
 ! D42   D(9,2,3,27)           -60.1271         estimate D2E/DX2                !
 ! D43   D(10,2,3,11)          -63.242          estimate D2E/DX2                !
 ! D44   D(10,2,3,12)          179.4308         estimate D2E/DX2                !
 ! D45   D(10,2,3,27)           58.1851         estimate D2E/DX2                !
 ! D46   D(2,3,27,28)           57.5613         estimate D2E/DX2                !
 ! D47   D(2,3,27,29)          -58.334          estimate D2E/DX2                !
 ! D48   D(2,3,27,41)          179.5959         estimate D2E/DX2                !
 ! D49   D(11,3,27,28)         179.5723         estimate D2E/DX2                !
 ! D50   D(11,3,27,29)          63.677          estimate D2E/DX2                !
 ! D51   D(11,3,27,41)         -58.3931         estimate D2E/DX2                !
 ! D52   D(12,3,27,28)         -64.094          estimate D2E/DX2                !
 ! D53   D(12,3,27,29)        -179.9894         estimate D2E/DX2                !
 ! D54   D(12,3,27,41)          57.9406         estimate D2E/DX2                !
 ! D55   D(1,4,5,15)            59.6563         estimate D2E/DX2                !
 ! D56   D(1,4,5,16)           -57.6775         estimate D2E/DX2                !
 ! D57   D(1,4,5,30)          -179.1027         estimate D2E/DX2                !
 ! D58   D(13,4,5,15)         -179.5049         estimate D2E/DX2                !
 ! D59   D(13,4,5,16)           63.1614         estimate D2E/DX2                !
 ! D60   D(13,4,5,30)          -58.2639         estimate D2E/DX2                !
 ! D61   D(14,4,5,15)          -61.1963         estimate D2E/DX2                !
 ! D62   D(14,4,5,16)         -178.53           estimate D2E/DX2                !
 ! D63   D(14,4,5,30)           60.0447         estimate D2E/DX2                !
 ! D64   D(4,5,30,31)           58.3442         estimate D2E/DX2                !
 ! D65   D(4,5,30,32)          -57.5559         estimate D2E/DX2                !
 ! D66   D(4,5,30,37)         -179.5845         estimate D2E/DX2                !
 ! D67   D(15,5,30,31)        -179.9913         estimate D2E/DX2                !
 ! D68   D(15,5,30,32)          64.1086         estimate D2E/DX2                !
 ! D69   D(15,5,30,37)         -57.92           estimate D2E/DX2                !
 ! D70   D(16,5,30,31)         -63.669          estimate D2E/DX2                !
 ! D71   D(16,5,30,32)        -179.5691         estimate D2E/DX2                !
 ! D72   D(16,5,30,37)          58.4023         estimate D2E/DX2                !
 ! D73   D(1,6,7,19)           -58.4457         estimate D2E/DX2                !
 ! D74   D(1,6,7,20)            58.7185         estimate D2E/DX2                !
 ! D75   D(1,6,7,24)          -179.8574         estimate D2E/DX2                !
 ! D76   D(17,6,7,19)           62.2916         estimate D2E/DX2                !
 ! D77   D(17,6,7,20)          179.4558         estimate D2E/DX2                !
 ! D78   D(17,6,7,24)          -59.1201         estimate D2E/DX2                !
 ! D79   D(18,6,7,19)         -179.2391         estimate D2E/DX2                !
 ! D80   D(18,6,7,20)          -62.0749         estimate D2E/DX2                !
 ! D81   D(18,6,7,24)           59.3492         estimate D2E/DX2                !
 ! D82   D(6,7,24,25)           57.906          estimate D2E/DX2                !
 ! D83   D(6,7,24,26)          -57.9467         estimate D2E/DX2                !
 ! D84   D(6,7,24,33)          179.9777         estimate D2E/DX2                !
 ! D85   D(19,7,24,25)         -63.9394         estimate D2E/DX2                !
 ! D86   D(19,7,24,26)        -179.7921         estimate D2E/DX2                !
 ! D87   D(19,7,24,33)          58.1323         estimate D2E/DX2                !
 ! D88   D(20,7,24,25)         179.7738         estimate D2E/DX2                !
 ! D89   D(20,7,24,26)          63.9211         estimate D2E/DX2                !
 ! D90   D(20,7,24,33)         -58.1546         estimate D2E/DX2                !
 ! D91   D(7,24,33,34)          60.1777         estimate D2E/DX2                !
 ! D92   D(7,24,33,35)        -179.992          estimate D2E/DX2                !
 ! D93   D(7,24,33,36)         -60.1622         estimate D2E/DX2                !
 ! D94   D(25,24,33,34)       -178.1822         estimate D2E/DX2                !
 ! D95   D(25,24,33,35)        -58.3518         estimate D2E/DX2                !
 ! D96   D(25,24,33,36)         61.478          estimate D2E/DX2                !
 ! D97   D(26,24,33,34)        -61.4668         estimate D2E/DX2                !
 ! D98   D(26,24,33,35)         58.3636         estimate D2E/DX2                !
 ! D99   D(26,24,33,36)        178.1934         estimate D2E/DX2                !
 ! D100  D(3,27,41,42)          60.1927         estimate D2E/DX2                !
 ! D101  D(3,27,41,43)        -179.9925         estimate D2E/DX2                !
 ! D102  D(3,27,41,44)         -60.1684         estimate D2E/DX2                !
 ! D103  D(28,27,41,42)       -178.1985         estimate D2E/DX2                !
 ! D104  D(28,27,41,43)        -58.3838         estimate D2E/DX2                !
 ! D105  D(28,27,41,44)         61.4404         estimate D2E/DX2                !
 ! D106  D(29,27,41,42)        -61.4708         estimate D2E/DX2                !
 ! D107  D(29,27,41,43)         58.344          estimate D2E/DX2                !
 ! D108  D(29,27,41,44)        178.1682         estimate D2E/DX2                !
 ! D109  D(5,30,37,38)         179.9913         estimate D2E/DX2                !
 ! D110  D(5,30,37,39)         -60.1918         estimate D2E/DX2                !
 ! D111  D(5,30,37,40)          60.1695         estimate D2E/DX2                !
 ! D112  D(31,30,37,38)        -58.3432         estimate D2E/DX2                !
 ! D113  D(31,30,37,39)         61.4738         estimate D2E/DX2                !
 ! D114  D(31,30,37,40)       -178.165          estimate D2E/DX2                !
 ! D115  D(32,30,37,38)         58.3887         estimate D2E/DX2                !
 ! D116  D(32,30,37,39)        178.2057         estimate D2E/DX2                !
 ! D117  D(32,30,37,40)        -61.4331         estimate D2E/DX2                !
 --------------------------------------------------------------------------------
 Trust Radius=3.00D-01 FncErr=1.00D-07 GrdErr=1.00D-06
 Number of steps in this run=    264 maximum allowed number of steps=    264.
 GradGradGradGradGradGradGradGradGradGradGradGradGradGradGradGradGradGrad

                          Input orientation:                          
 ---------------------------------------------------------------------
 Center     Atomic      Atomic             Coordinates (Angstroms)
 Number     Number       Type             X           Y           Z
 ---------------------------------------------------------------------
      1         15           0       -0.511848    0.907128    2.195889
      2          6           0       -1.574914   -0.438908    1.588412
      3          6           0       -2.809740    0.029115    0.803874
      4          6           0        0.820771    0.192209    3.207762
      5          6           0        1.736225    1.226741    3.879534
      6          6           0       -1.488838    2.079391    3.183312
      7          6           0       -2.155751    1.448429    4.414192
      8          6           0        0.207357    1.790872    0.786966
      9          1           0       -1.870927   -1.027456    2.462131
     10          1           0       -0.941935   -1.086229    0.972435
     11          1           0       -2.503328    0.639710   -0.051961
     12          1           0       -3.434114    0.665865    1.438999
     13          1           0        1.394286   -0.469641    2.550374
     14          1           0        0.341945   -0.445999    3.956601
     15          1           0        1.146743    1.872490    4.538461
     16          1           0        2.189509    1.876238    3.123345
     17          1           0       -2.235948    2.516055    2.513816
     18          1           0       -0.815597    2.890950    3.474998
     19          1           0       -2.814505    0.630518    4.103690
     20          1           0       -1.394554    1.008545    5.067221
     21          1           0        0.799269    1.102471    0.181259
     22          1           0        0.849204    2.597165    1.143873
     23          1           0       -0.586706    2.217012    0.172668
     24          6           0       -2.969054    2.475641    5.209731
     25          1           0       -3.727312    2.917598    4.554044
     26          1           0       -2.309532    3.294898    5.516383
     27          6           0       -3.645517   -1.154417    0.302683
     28          1           0       -3.945311   -1.769092    1.158612
     29          1           0       -3.020584   -1.791485   -0.332602
     30          6           0        2.846973    0.556093    4.696186
     31          1           0        3.436940   -0.089916    4.036964
     32          1           0        2.393057   -0.099493    5.447501
     33          6           0       -3.639819    1.861661    6.438618
     34          1           0       -2.900075    1.441276    7.125732
     35          1           0       -4.211737    2.612659    6.986549
     36          1           0       -4.328883    1.060862    6.155776
     37          6           0        3.761133    1.573117    5.379746
     38          1           0        4.541934    1.070968    5.953781
     39          1           0        4.251890    2.220428    4.647528
     40          1           0        3.200085    2.210337    6.069167
     41          6           0       -4.884361   -0.704973   -0.472234
     42          1           0       -4.609957   -0.115111   -1.351298
     43          1           0       -5.461136   -1.564952   -0.817325
     44          1           0       -5.541959   -0.092885    0.151478
 ---------------------------------------------------------------------
                    Distance matrix (angstroms):
                    1          2          3          4          5
     1  P    0.000000
     2  C    1.819602   0.000000
     3  C    2.826468   1.536015   0.000000
     4  C    1.819579   2.959714   4.357280   0.000000
     5  C    2.826773   4.357438   5.617811   1.536096   0.000000
     6  C    1.817612   2.982104   3.407366   2.982674   3.407751
     7  C    2.813591   3.447383   3.934025   3.448659   3.934778
     8  C    1.811994   2.964916   3.493845   2.965173   3.495663
     9  H    2.379201   1.094256   2.178883   3.047751   4.483524
    10  H    2.378084   1.095040   2.181995   3.120612   4.579694
    11  H    3.015018   2.171680   1.095065   4.677145   5.811633
    12  H    3.028321   2.167827   1.094841   4.632162   5.744841
    13  H    2.377919   3.121292   4.579613   1.095045   2.182041
    14  H    2.379080   3.046755   4.483140   1.094233   2.178994
    15  H    3.028282   4.631713   5.744470   2.168032   1.094836
    16  H    3.016070   4.678333   5.812426   2.171756   1.095050
    17  H    2.379548   3.166251   3.072134   3.901968   4.393823
    18  H    2.379902   3.901759   4.393360   3.167384   3.073279
    19  H    3.003073   3.001146   3.354176   3.769620   4.595092
    20  H    3.005662   3.772235   4.597625   3.005272   3.355591
    21  H    2.411622   3.161119   3.816371   3.160500   3.817142
    22  H    2.411519   3.910461   4.483119   3.169268   3.185704
    23  H    2.411394   3.167775   3.182325   3.910577   4.485254
    24  C    4.193011   4.853058   5.042068   4.856410   5.046665
    25  H    4.465657   4.969297   4.821726   5.470400   5.758836
    26  H    4.467527   5.468997   5.755283   4.975460   4.829565
    27  C    4.201676   2.540167   1.533122   5.495509   6.886721
    28  H    4.475127   2.751890   2.156133   5.546283   6.975549
    29  H    4.468728   2.758572   2.156529   5.587954   7.034132
    30  C    4.201951   5.495578   6.886669   2.540337   1.533118
    31  H    4.469517   5.588907   7.034775   2.758897   2.156572
    32  H    4.474901   5.545499   6.974877   2.752018   2.156118
    33  C    5.356873   5.751604   5.983109   5.755204   5.987812
    34  H    5.503843   5.996086   6.478290   5.545751   5.663841
    35  H    6.288755   6.738307   6.845857   6.742696   6.852194
    36  H    5.502191   5.540259   5.658194   5.997023   6.480303
    37  C    5.370182   6.848055   8.154687   3.907704   2.543789
    38  H    6.299945   7.664985   9.036267   4.707430   3.492674
    39  H    5.516202   7.098021   8.333195   4.237826   2.811725
    40  H    5.520787   7.063730   8.282454   4.233393   2.811555
    41  C    5.369974   3.907620   2.543893   6.848054   8.154850
    42  H    5.515615   4.237715   2.811823   7.097343   8.332839
    43  H    6.299689   4.707257   3.492740   7.664939   9.036373
    44  H    5.521020   4.233434   2.811677   7.064452   8.283223
                    6          7          8          9         10
     6  C    0.000000
     7  C    1.535562   0.000000
     8  C    2.950050   4.342617   0.000000
     9  H    3.212256   3.165703   3.881806   0.000000
    10  H    3.899773   4.443370   3.103705   1.756608   0.000000
    11  H    3.683594   4.552073   3.062154   3.082212   2.542872
    12  H    2.970654   3.331426   3.866665   2.521446   3.081959
    13  H    3.900074   4.444724   3.102955   3.313693   2.885827
    14  H    3.213617   3.168080   3.881790   2.732826   3.311116
    15  H    2.970778   3.331927   3.868181   4.671955   5.082630
    16  H    3.684440   4.553085   3.065107   5.035453   4.817527
    17  H    1.094110   2.181212   3.078578   3.562637   4.126351
    18  H    1.094058   2.181505   3.079306   4.182526   4.700716
    19  H    2.168806   1.095148   4.634515   2.516730   4.032182
    20  H    2.169034   1.095155   4.636673   3.340467   4.621710
    21  H    3.898991   5.173931   1.091392   4.107178   2.906572
    22  H    3.145448   4.587411   1.090623   4.719618   4.099386
    23  H    3.145912   4.587281   1.090639   4.173420   3.417194
    24  C    2.540556   1.532811   5.488110   4.585507   5.894981
    25  H    2.755406   2.155880   5.562554   4.835877   6.051187
    26  H    2.755760   2.155903   5.564549   5.310703   6.458487
    27  C    4.838058   5.089079   4.873797   2.797946   2.786139
    28  H    4.994446   4.914649   5.482346   2.559737   3.085649
    29  H    5.448998   5.811802   4.950386   3.117048   2.553682
    30  C    4.838231   5.089502   4.875885   5.455017   5.560519
    31  H    5.449578   5.812658   4.952783   5.615383   5.436775
    32  H    4.994316   4.914818   5.483735   5.287259   5.667630
    33  C    3.907831   2.543918   6.837174   5.223832   6.771099
    34  H    4.235735   2.811852   7.068119   5.376146   6.934381
    35  H    4.707777   3.492782   7.657582   6.261005   7.780934
    36  H    4.235422   2.811730   7.066436   4.903635   6.553506
    37  C    5.713390   5.996445   5.811228   6.855331   6.972472
    38  H    6.712870   6.882717   6.782536   7.597354   7.716225
    39  H    5.926193   6.458195   5.607736   7.267296   7.170502
    40  H    5.507386   5.657245   6.085558   7.014925   7.348493
    41  C    5.713605   5.996634   5.808651   4.218445   4.216058
    42  H    5.926206   6.458225   5.604593   4.782980   4.449403
    43  H    6.713083   6.882936   6.779905   4.892170   4.884218
    44  H    5.508048   5.657985   6.083340   4.437231   4.777125
                   11         12         13         14         15
    11  H    0.000000
    12  H    1.757842   0.000000
    13  H    4.816036   5.083107   0.000000
    14  H    5.034175   4.672600   1.756547   0.000000
    15  H    5.992891   5.660995   3.082101   2.522231   0.000000
    16  H    5.799508   5.993927   2.542406   3.082303   1.757819
    17  H    3.189886   2.452353   4.700459   4.183411   3.994492
    18  H    4.511758   3.994111   4.126995   3.564699   2.453364
    19  H    4.167296   2.736009   4.619205   3.338218   4.174087
    20  H    5.250851   4.176270   4.036977   2.522816   2.735723
    21  H    3.343006   4.437800   2.904873   4.106107   4.438342
    22  H    4.062157   4.707848   3.417698   4.174877   3.483807
    23  H    2.492344   3.481003   4.098283   4.719340   4.709957
    24  C    5.592222   4.208324   5.897932   4.590101   4.213571
    25  H    5.282252   3.854837   6.459012   5.313150   4.984867
    26  H    6.172037   4.980116   6.056998   4.843300   3.863342
    27  C    2.156214   2.156231   5.560633   5.454615   7.075997
    28  H    3.057307   2.503788   5.668938   5.287710   7.114317
    29  H    2.501403   3.057474   5.435982   5.613751   7.383670
    30  C    7.153853   7.076255   2.786923   2.797560   2.156052
    31  H    7.248341   7.384579   2.554717   3.116448   3.057374
    32  H    7.400344   7.114055   3.086729   2.559279   2.503671
    33  C    6.701671   5.144749   6.774631   5.228781   5.149941
    34  H    7.233201   5.764147   6.559500   4.910792   4.822515
    35  H    7.506784   5.930431   7.785096   6.266737   5.937533
    36  H    6.484290   4.817118   6.935130   5.378070   5.766882
    37  C    8.343750   8.253737   4.216654   4.218177   2.762683
    38  H    9.267720   9.174133   4.885115   4.891812   3.764690
    39  H    8.379549   8.472661   4.449767   4.782769   3.126482
    40  H    8.512579   8.236289   4.777562   4.437118   2.583296
    41  C    2.766608   2.763191   6.972299   6.855358   8.253763
    42  H    2.587647   3.127025   7.169356   7.266678   8.472273
    43  H    3.767618   3.765150   7.716081   7.597248   9.174122
    44  H    3.132309   2.583877   7.349023   7.015980   8.236932
                   16         17         18         19         20
    16  H    0.000000
    17  H    4.512822   0.000000
    18  H    3.191232   1.755510   0.000000
    19  H    5.249100   2.533314   3.082278   0.000000
    20  H    4.168579   3.082273   2.532551   1.757144   0.000000
    21  H    3.344750   4.080636   4.081075   5.354210   5.356707
    22  H    2.496890   3.376609   2.879586   5.104016   4.790702
    23  H    4.065709   2.879305   3.378160   4.788840   5.105845
    24  C    5.596701   2.794107   2.796275   2.156778   2.156787
    25  H    6.175766   2.558893   3.105339   2.503352   3.057710
    26  H    5.289668   3.102808   2.561692   3.057715   2.503266
    27  C    7.154616   4.510915   5.868307   4.280681   5.696144
    28  H    7.401663   4.808428   6.072622   3.963626   5.431284
    29  H    7.248505   5.222322   6.425339   5.058582   6.296207
    30  C    2.156124   5.868584   4.511905   5.692883   4.281698
    31  H    2.501309   6.425942   5.223547   6.293174   5.060769
    32  H    3.057229   6.072503   4.809260   5.427471   3.964639
    33  C    6.706140   4.219379   4.221222   2.765637   2.765819
    34  H    6.489387   4.781839   4.446848   3.130078   2.586758
    35  H    7.512829   4.890646   4.893077   3.767229   3.767429
    36  H    7.235324   4.445429   4.783197   2.586425   3.130172
    37  C    2.766447   6.713246   5.129446   6.764305   5.195915
    38  H    3.767457   7.737010   6.177366   7.598291   6.002648
    39  H    2.587473   6.836093   5.244412   7.263436   5.790262
    40  H    3.132212   6.502649   4.828940   6.521827   4.853753
    41  C    8.344488   5.128899   6.713132   5.196819   6.767603
    42  H    8.379775   5.243858   6.835693   5.791071   7.266278
    43  H    9.268389   6.176807   7.736932   6.003426   7.601831
    44  H    8.513814   4.828759   6.502888   4.856161   6.525231
                   21         22         23         24         25
    21  H    0.000000
    22  H    1.778547   0.000000
    23  H    1.778540   1.774710   0.000000
    24  C    6.432060   5.578984   5.578035   0.000000
    25  H    6.550257   5.716331   5.436053   1.095539   0.000000
    26  H    6.552475   5.439052   5.717102   1.095530   1.754580
    27  C    4.986423   5.914769   4.554093   6.141176   5.887449
    28  H    5.631353   6.484735   5.304841   5.948311   5.791506
    29  H    4.819783   6.034525   4.716683   6.994889   6.823066
    30  C    4.987604   4.558068   5.917012   6.146102   6.986997
    31  H    4.821364   4.720885   6.036922   6.999588   7.787106
    32  H    5.631890   5.308169   6.486066   5.953158   6.881861
    33  C    7.709502   6.980446   6.979248   1.528745   2.162008
    34  H    7.875636   7.153727   7.368754   2.178470   3.078543
    35  H    8.585035   7.729827   7.728283   2.172583   2.498947
    36  H    7.873661   7.368310   7.151094   2.178471   2.524856
    37  C    6.001534   5.241242   6.814101   6.792560   7.652857
    38  H    6.879720   6.253059   7.812659   7.677347   8.587767
    39  H    5.754822   4.898551   6.590630   7.247291   8.010146
    40  H    6.454359   5.471271   7.007749   6.234364   7.126335
    41  C    5.999797   6.810998   5.236767   6.787447   6.302797
    42  H    5.752475   6.586711   4.893650   7.242352   6.696973
    43  H    6.877862   7.809603   6.248472   7.672175   7.207704
    44  H    6.452979   7.004869   5.467230   6.229212   5.633696
                   26         27         28         29         30
    26  H    0.000000
    27  C    6.983117   0.000000
    28  H    6.878221   1.095589   0.000000
    29  H    7.783798   1.095438   1.754806   0.000000
    30  C    5.896043   8.023786   8.003501   8.076389   0.000000
    31  H    6.831368   8.077079   8.099516   7.980480   1.095428
    32  H    5.800084   8.002899   7.833073   8.098144   1.095585
    33  C    2.162025   6.837138   6.415150   7.718701   6.842445
    34  H    2.524809   7.338072   6.856055   8.129699   6.301968
    35  H    2.499045   7.693213   7.296271   8.624691   7.700689
    36  H    3.078558   6.295486   5.755642   7.207398   7.340171
    37  C    6.311590   9.384800   9.400937   9.483837   1.528817
    38  H    7.216632  10.194194  10.153468  10.242262   2.172449
    39  H    6.705344   9.624775   9.761296   9.684318   2.178570
    40  H    5.642493   9.562227   9.539711   9.782329   2.178598
    41  C    7.648023   1.528801   2.161903   2.161867   9.384902
    42  H    8.005320   2.178522   3.078483   2.524693   9.624364
    43  H    8.582925   2.172425   2.498745   2.498513  10.194229
    44  H    7.120945   2.178579   2.524535   3.078459   9.562935
                   31         32         33         34         35
    31  H    0.000000
    32  H    1.754821   0.000000
    33  C    7.723802   6.420595   0.000000
    34  H    7.214069   5.762610   1.093650   0.000000
    35  H    8.631699   7.303954   1.091474   1.764077   0.000000
    36  H    8.131523   6.858029   1.093658   1.768339   1.764080
    37  C    2.161908   2.161909   7.481883   6.887492   8.199337
    38  H    2.498570   2.498794   8.234158   7.542817   8.948195
    39  H    2.524802   3.078514   8.100357   7.609150   8.789644
    40  H    3.078492   2.524496   6.858744   6.238568   7.479209
    41  C    9.484472   9.400568   7.476388   8.140815   8.191004
    42  H    9.684346   9.760436   8.095158   8.786698   8.781742
    43  H   10.242832  10.153027   8.228461   8.870658   8.939456
    44  H    9.783539   9.540041   6.853212   7.614027   7.470451
                   36         37         38         39         40
    36  H    0.000000
    37  C    8.143279   0.000000
    38  H    8.873123   1.091476   0.000000
    39  H    8.789145   1.093616   1.763996   0.000000
    40  H    7.616703   1.093675   1.764096   1.768460   0.000000
    41  C    6.881660  10.685501  11.545678  10.873869  10.800335
    42  H    7.603820  10.873464  11.769795  10.953218  11.021242
    43  H    7.536646  11.545623  12.363549  11.770156  11.691592
    44  H    6.233320  10.800827  11.692142  11.022040  10.804962
                   41         42         43         44
    41  C    0.000000
    42  H    1.093612   0.000000
    43  H    1.091476   1.763993   0.000000
    44  H    1.093666   1.768462   1.764113   0.000000
 Symmetry turned off by external request.
 Stoichiometry    C13H30P
 Rotational constants (GHZ):      0.5838845      0.2877114      0.2148739
 Standard basis: 6-311+G(d,p) (5D, 7F)
   496 basis functions,   758 primitive gaussians,   510 cartesian basis functions
    61 alpha electrons       61 beta electrons
       nuclear repulsion energy      1089.2911917782 Hartrees.
 NAtoms=   44 NActive=   44 NUniq=   44 SFac= 1.00D+00 NAtFMM=   60 NAOKFM=F Big=F
 Integral buffers will be    131072 words long.
 Raffenetti 2 integral format.
 Two-electron integral symmetry is turned off.
 Nuclear repulsion after empirical dispersion term =     1089.2149153048 Hartrees.
 One-electron integrals computed using PRISM.
 NBasis=   496 RedAO= T EigKep=  3.48D-06  NBF=   496
 NBsUse=   496 1.00D-06 EigRej= -1.00D+00 NBFU=   496
 ExpMin= 3.48D-02 ExpMax= 7.75D+04 ExpMxC= 2.65D+03 IAcc=3 IRadAn=         5 AccDes= 0.00D+00
 Harris functional with IExCor=  402 and IRadAn=       5 diagonalized for initial guess.
 HarFok:  IExCor=  402 AccDes= 0.00D+00 IRadAn=         5 IDoV= 1 UseB2=F ITyADJ=14
 ICtDFT=  3500011 ScaDFX=  1.000000  1.000000  1.000000  1.000000
 FoFCou: FMM=F IPFlag=           0 FMFlag=      100000 FMFlg1=           0
         NFxFlg=           0 DoJE=T BraDBF=F KetDBF=T FulRan=T
         wScrn=  0.000000 ICntrl=     500 IOpCl=  0 I1Cent=   200000004 NGrid=           0
         NMat0=    1 NMatS0=      1 NMatT0=    0 NMatD0=    1 NMtDS0=    0 NMtDT0=    0
 Symmetry not used in FoFCou.
 Keep R1 ints in memory in canonical form, NReq=7663612794.
 Requested convergence on RMS density matrix=1.00D-10 within 128 cycles.
 Requested convergence on MAX density matrix=1.00D-08.
 Requested convergence on             energy=1.00D-08.
 No special actions if energy rises.
 SCF Done:  E(RB3LYP) =  -854.883229554     A.U. after   24 cycles
            NFock= 24  Conv=0.23D-10     -V/T= 2.0038

 **********************************************************************

            Population analysis using the SCF density.

 **********************************************************************

 Alpha  occ. eigenvalues --  -77.26651 -10.33903 -10.33902 -10.33844 -10.33839
 Alpha  occ. eigenvalues --  -10.31239 -10.31192 -10.31191 -10.28515 -10.28446
 Alpha  occ. eigenvalues --  -10.28445 -10.26029 -10.25946 -10.25946  -6.76221
 Alpha  occ. eigenvalues --   -4.92268  -4.92232  -4.92231  -0.98706  -0.93956
 Alpha  occ. eigenvalues --   -0.93663  -0.90930  -0.86737  -0.86110  -0.85988
 Alpha  occ. eigenvalues --   -0.79564  -0.77705  -0.76474  -0.71056  -0.70968
 Alpha  occ. eigenvalues --   -0.70944  -0.69525  -0.63264  -0.63127  -0.61981
 Alpha  occ. eigenvalues --   -0.59545  -0.59202  -0.57805  -0.56843  -0.56148
 Alpha  occ. eigenvalues --   -0.55212  -0.55044  -0.54803  -0.54498  -0.53740
 Alpha  occ. eigenvalues --   -0.53117  -0.51553  -0.50737  -0.49459  -0.49403
 Alpha  occ. eigenvalues --   -0.49184  -0.49034  -0.47108  -0.46357  -0.46040
 Alpha  occ. eigenvalues --   -0.45568  -0.45018  -0.44889  -0.44826  -0.44781
 Alpha  occ. eigenvalues --   -0.44323
 Alpha virt. eigenvalues --   -0.13042  -0.11537  -0.11184  -0.10504  -0.10181
 Alpha virt. eigenvalues --   -0.09982  -0.08732  -0.08246  -0.08045  -0.07245
 Alpha virt. eigenvalues --   -0.07201  -0.06995  -0.06066  -0.05814  -0.05589
 Alpha virt. eigenvalues --   -0.05190  -0.04930  -0.04383  -0.04270  -0.04016
 Alpha virt. eigenvalues --   -0.02689  -0.02502  -0.02413  -0.02236  -0.01999
 Alpha virt. eigenvalues --   -0.01683  -0.01600  -0.01311  -0.01066  -0.00833
 Alpha virt. eigenvalues --   -0.00708  -0.00232   0.00101   0.00447   0.01038
 Alpha virt. eigenvalues --    0.01262   0.01482   0.01498   0.02756   0.02790
 Alpha virt. eigenvalues --    0.03211   0.03545   0.03564   0.04014   0.04233
 Alpha virt. eigenvalues --    0.04423   0.04948   0.05132   0.05326   0.05347
 Alpha virt. eigenvalues --    0.05950   0.06069   0.06232   0.07112   0.07127
 Alpha virt. eigenvalues --    0.07875   0.08007   0.08558   0.09084   0.09547
 Alpha virt. eigenvalues --    0.09759   0.10476   0.10628   0.10988   0.11148
 Alpha virt. eigenvalues --    0.11612   0.11621   0.11893   0.12335   0.12760
 Alpha virt. eigenvalues --    0.13403   0.13452   0.13462   0.13949   0.14254
 Alpha virt. eigenvalues --    0.14351   0.14354   0.14505   0.15192   0.15594
 Alpha virt. eigenvalues --    0.15926   0.16750   0.16923   0.17557   0.17746
 Alpha virt. eigenvalues --    0.17780   0.17977   0.18417   0.19310   0.19421
 Alpha virt. eigenvalues --    0.20051   0.20320   0.20912   0.22120   0.22679
 Alpha virt. eigenvalues --    0.23147   0.23276   0.23749   0.25349   0.25802
 Alpha virt. eigenvalues --    0.28383   0.28603   0.28975   0.30339   0.31265
 Alpha virt. eigenvalues --    0.31574   0.31657   0.32178   0.32625   0.32982
 Alpha virt. eigenvalues --    0.33623   0.34433   0.35414   0.36969   0.38970
 Alpha virt. eigenvalues --    0.39835   0.40319   0.41829   0.41954   0.43082
 Alpha virt. eigenvalues --    0.43155   0.43177   0.43786   0.44705   0.45092
 Alpha virt. eigenvalues --    0.45798   0.46262   0.47998   0.48512   0.48723
 Alpha virt. eigenvalues --    0.49593   0.49801   0.49926   0.50918   0.51225
 Alpha virt. eigenvalues --    0.51394   0.52260   0.53044   0.53191   0.53741
 Alpha virt. eigenvalues --    0.54561   0.54618   0.55459   0.55495   0.56452
 Alpha virt. eigenvalues --    0.56616   0.57105   0.57487   0.57903   0.58159
 Alpha virt. eigenvalues --    0.59336   0.59356   0.59791   0.59907   0.60298
 Alpha virt. eigenvalues --    0.61152   0.61469   0.62567   0.63020   0.63362
 Alpha virt. eigenvalues --    0.63697   0.64756   0.64952   0.65236   0.65986
 Alpha virt. eigenvalues --    0.66362   0.67140   0.67257   0.68514   0.68769
 Alpha virt. eigenvalues --    0.69676   0.70039   0.70759   0.73020   0.73050
 Alpha virt. eigenvalues --    0.73916   0.75121   0.77712   0.78676   0.79921
 Alpha virt. eigenvalues --    0.82395   0.83969   0.84634   0.85310   0.85837
 Alpha virt. eigenvalues --    0.87615   0.88141   0.88249   0.89925   0.91283
 Alpha virt. eigenvalues --    0.94285   0.94970   0.96133   0.96594   0.96959
 Alpha virt. eigenvalues --    1.01617   1.02327   1.06702   1.07589   1.08856
 Alpha virt. eigenvalues --    1.09565   1.12418   1.13810   1.14172   1.14627
 Alpha virt. eigenvalues --    1.15650   1.15970   1.16241   1.22180   1.23766
 Alpha virt. eigenvalues --    1.28943   1.29801   1.31460   1.32882   1.35368
 Alpha virt. eigenvalues --    1.36033   1.36060   1.36358   1.36388   1.37278
 Alpha virt. eigenvalues --    1.39940   1.41820   1.42494   1.42713   1.43311
 Alpha virt. eigenvalues --    1.43537   1.44586   1.44976   1.45200   1.45205
 Alpha virt. eigenvalues --    1.45861   1.46484   1.47161   1.47445   1.48281
 Alpha virt. eigenvalues --    1.48828   1.49034   1.49065   1.49861   1.50202
 Alpha virt. eigenvalues --    1.50324   1.50504   1.51463   1.53071   1.53330
 Alpha virt. eigenvalues --    1.54145   1.54722   1.55080   1.56159   1.56203
 Alpha virt. eigenvalues --    1.56365   1.57537   1.57555   1.59409   1.60105
 Alpha virt. eigenvalues --    1.60259   1.61467   1.62075   1.62492   1.63950
 Alpha virt. eigenvalues --    1.64127   1.64263   1.64976   1.65299   1.66066
 Alpha virt. eigenvalues --    1.67087   1.67785   1.69309   1.71185   1.72990
 Alpha virt. eigenvalues --    1.73259   1.74312   1.75957   1.78014   1.80623
 Alpha virt. eigenvalues --    1.81297   1.82169   1.83095   1.84575   1.86335
 Alpha virt. eigenvalues --    1.88363   1.90822   1.91035   1.92737   1.94023
 Alpha virt. eigenvalues --    1.95309   1.95511   1.96770   1.97397   1.97846
 Alpha virt. eigenvalues --    1.98136   2.00521   2.03126   2.03459   2.03782
 Alpha virt. eigenvalues --    2.05478   2.05560   2.05870   2.07561   2.09513
 Alpha virt. eigenvalues --    2.10451   2.11150   2.11404   2.14336   2.15387
 Alpha virt. eigenvalues --    2.15811   2.16552   2.18368   2.20223   2.22609
 Alpha virt. eigenvalues --    2.23315   2.23589   2.24373   2.26969   2.27088
 Alpha virt. eigenvalues --    2.27270   2.28050   2.28728   2.32765   2.34119
 Alpha virt. eigenvalues --    2.35109   2.35243   2.35489   2.37365   2.37390
 Alpha virt. eigenvalues --    2.37699   2.39809   2.40159   2.40968   2.41158
 Alpha virt. eigenvalues --    2.42181   2.42528   2.42664   2.42906   2.43527
 Alpha virt. eigenvalues --    2.43564   2.44206   2.44708   2.45281   2.45959
 Alpha virt. eigenvalues --    2.47439   2.48324   2.50064   2.50670   2.50956
 Alpha virt. eigenvalues --    2.52470   2.52670   2.54874   2.54978   2.56320
 Alpha virt. eigenvalues --    2.57862   2.58335   2.59562   2.59836   2.60113
 Alpha virt. eigenvalues --    2.60989   2.61715   2.62087   2.62744   2.64468
 Alpha virt. eigenvalues --    2.64570   2.65347   2.65756   2.66942   2.67291
 Alpha virt. eigenvalues --    2.69604   2.73749   2.74426   2.77122   2.78367
 Alpha virt. eigenvalues --    2.79344   2.80760   2.81626   2.82039   2.82122
 Alpha virt. eigenvalues --    2.84299   2.87727   2.89287   2.92220   2.94109
 Alpha virt. eigenvalues --    2.97128   2.97431   3.08397   3.08793   3.11354
 Alpha virt. eigenvalues --    3.20978   3.21108   3.21259   3.29116   3.31370
 Alpha virt. eigenvalues --    3.31715   3.56728   3.59139   3.59374   3.61722
 Alpha virt. eigenvalues --    3.62191   3.66683   3.67566   3.68501   3.71440
 Alpha virt. eigenvalues --    3.71511   3.71568   3.71634   3.71788   3.71816
 Alpha virt. eigenvalues --    3.73508   3.73841   3.74265   3.95879   3.96622
 Alpha virt. eigenvalues --    3.96895   4.05951   4.06107   4.07485   4.18919
 Alpha virt. eigenvalues --    4.18984   4.19747   7.08875  13.93169  13.95539
 Alpha virt. eigenvalues --   13.98302  23.70187  23.71237  23.73538  23.75295
 Alpha virt. eigenvalues --   23.75880  23.76594  23.78428  23.78551  23.78951
 Alpha virt. eigenvalues --   23.80670  23.87117  23.87213  23.87239 163.25893
          Condensed to atoms (all electrons):
               1          2          3          4          5          6
     1  P   14.830760  -0.095814  -0.021392  -0.087793  -0.023495   0.450171
     2  C   -0.095814   8.384035  -1.591634  -1.049650   0.140596  -0.677096
     3  C   -0.021392  -1.591634   7.300059   0.139570   0.023997   0.182225
     4  C   -0.087793  -1.049650   0.139570   8.384718  -1.594561  -0.677223
     5  C   -0.023495   0.140596   0.023997  -1.594561   7.302785   0.180548
     6  C    0.450171  -0.677096   0.182225  -0.677223   0.180548  10.402120
     7  C   -0.625674   0.272306   0.033364   0.271730   0.033691  -4.099097
     8  C   -0.087413  -0.005975  -0.045995  -0.008815  -0.044672  -0.651737
     9  H    0.027913   0.401291  -0.084671   0.020926  -0.004243  -0.080762
    10  H   -0.005644   0.301246   0.070773  -0.008649   0.005427   0.036122
    11  H    0.009557  -0.074710   0.459181   0.008830   0.001081  -0.016324
    12  H    0.003618  -0.051524   0.464284  -0.004396  -0.001841   0.028683
    13  H   -0.005667  -0.008553   0.005421   0.301249   0.070758   0.036209
    14  H    0.027675   0.021022  -0.004290   0.401507  -0.084766  -0.080936
    15  H    0.003849  -0.004355  -0.001830  -0.051323   0.464069   0.028589
    16  H    0.009211   0.008738   0.001059  -0.074952   0.459538  -0.016240
    17  H    0.004149  -0.050421   0.023395   0.026500  -0.008248   0.338494
    18  H    0.003905   0.026456  -0.008264  -0.050269   0.023304   0.337671
    19  H   -0.011753   0.008636  -0.003510  -0.006440  -0.003947  -0.023719
    20  H   -0.012322  -0.006209  -0.004004   0.008975  -0.003442  -0.023908
    21  H    0.044529  -0.020909  -0.007558  -0.020572  -0.007796   0.045720
    22  H    0.017665   0.060644  -0.001787  -0.081971   0.022883  -0.026890
    23  H    0.018086  -0.081950   0.022767   0.060660  -0.001800  -0.027017
    24  C   -0.028906  -0.098481   0.064002  -0.099673   0.064180   1.149182
    25  H    0.006014   0.003854  -0.002871  -0.001929   0.000295  -0.021104
    26  H    0.005733  -0.001933   0.000307   0.003840  -0.002814  -0.020470
    27  C   -0.268225   0.778999  -0.714799  -0.091174   0.009058  -0.244752
    28  H    0.002180  -0.018583  -0.017691   0.000991   0.000346   0.003074
    29  H    0.013548   0.006161  -0.050375   0.001219  -0.000344  -0.001074
    30  C   -0.266494  -0.091097   0.008999   0.778186  -0.714174  -0.244869
    31  H    0.013419   0.001266  -0.000341   0.006831  -0.051117  -0.001076
    32  H    0.002262   0.000929   0.000343  -0.019317  -0.016959   0.003101
    33  C   -0.041056   0.006580  -0.008380   0.006558  -0.008365  -0.276914
    34  H    0.001818   0.001157   0.000084  -0.001488  -0.000527   0.001358
    35  H    0.000822  -0.000014  -0.000006  -0.000010  -0.000009   0.010590
    36  H    0.001808  -0.001487  -0.000535   0.001155   0.000090   0.001453
    37  C   -0.043572  -0.004276   0.001609  -0.186699   0.167994  -0.004526
    38  H    0.000253   0.000015   0.000002   0.010886   0.017652   0.000045
    39  H   -0.000315  -0.000103   0.000017  -0.002323  -0.014880   0.000887
    40  H    0.004742   0.000052  -0.000030   0.002195  -0.031677  -0.001952
    41  C   -0.043538  -0.186304   0.167538  -0.004307   0.001615  -0.004481
    42  H   -0.000338  -0.002156  -0.015211  -0.000099   0.000017   0.000883
    43  H    0.000260   0.010874   0.017687   0.000015   0.000002   0.000044
    44  H    0.004757   0.002060  -0.031387   0.000048  -0.000030  -0.001932
               7          8          9         10         11         12
     1  P   -0.625674  -0.087413   0.027913  -0.005644   0.009557   0.003618
     2  C    0.272306  -0.005975   0.401291   0.301246  -0.074710  -0.051524
     3  C    0.033364  -0.045995  -0.084671   0.070773   0.459181   0.464284
     4  C    0.271730  -0.008815   0.020926  -0.008649   0.008830  -0.004396
     5  C    0.033691  -0.044672  -0.004243   0.005427   0.001081  -0.001841
     6  C   -4.099097  -0.651737  -0.080762   0.036122  -0.016324   0.028683
     7  C    9.981893   0.438334   0.042680  -0.010845   0.000609  -0.027595
     8  C    0.438334   6.111759   0.011506  -0.021315  -0.002650  -0.003741
     9  H    0.042680   0.011506   0.436354  -0.017745   0.005850  -0.006268
    10  H   -0.010845  -0.021315  -0.017745   0.453081  -0.004677   0.004954
    11  H    0.000609  -0.002650   0.005850  -0.004677   0.542137  -0.038066
    12  H   -0.027595  -0.003741  -0.006268   0.004954  -0.038066   0.534143
    13  H   -0.010797  -0.021409  -0.000496   0.001195  -0.000001  -0.000023
    14  H    0.042847   0.011562   0.001434  -0.000491  -0.000003  -0.000018
    15  H   -0.027496  -0.003826  -0.000018  -0.000023   0.000003  -0.000004
    16  H    0.000575  -0.002454  -0.000002  -0.000001  -0.000006   0.000003
    17  H    0.025927   0.003961   0.000422  -0.000249  -0.000294  -0.002332
    18  H    0.026792   0.004182  -0.000089  -0.000099  -0.000087   0.000395
    19  H    0.435720  -0.002337  -0.002358   0.000402  -0.000077   0.001115
    20  H    0.436069  -0.002401  -0.000148  -0.000097   0.000013  -0.000106
    21  H   -0.010817   0.345281  -0.000057   0.000531   0.000116   0.000012
    22  H   -0.001081   0.373470  -0.000164  -0.000247   0.000054  -0.000064
    23  H   -0.001076   0.373188   0.000172   0.000606   0.002540   0.000107
    24  C   -1.223822  -0.050659  -0.009179   0.002061  -0.001438   0.005395
    25  H   -0.016241   0.000019   0.000022  -0.000003   0.000026  -0.000222
    26  H   -0.016743   0.000045   0.000009   0.000001  -0.000001   0.000021
    27  C    0.182862   0.074241   0.008906  -0.037147  -0.070526  -0.076945
    28  H   -0.001374  -0.001501   0.005093  -0.000698   0.008726  -0.009132
    29  H   -0.001276  -0.000281  -0.001108   0.004608  -0.008773   0.008662
    30  C    0.182587   0.073664   0.003928  -0.001256   0.000273  -0.000219
    31  H   -0.001255  -0.000283  -0.000008  -0.000003   0.000000   0.000000
    32  H   -0.001433  -0.001492   0.000014   0.000004  -0.000000   0.000000
    33  C    0.325705   0.004160   0.000126  -0.000106  -0.000161   0.000395
    34  H   -0.024981  -0.000027  -0.000006  -0.000000   0.000000  -0.000002
    35  H    0.018511  -0.000006   0.000001   0.000000   0.000000  -0.000000
    36  H   -0.025114  -0.000026   0.000018   0.000001   0.000000   0.000027
    37  C    0.000544  -0.002845   0.000059  -0.000020   0.000011  -0.000010
    38  H    0.000039  -0.000015  -0.000000  -0.000000   0.000000   0.000000
    39  H   -0.000022  -0.000582   0.000000   0.000000  -0.000000  -0.000000
    40  H   -0.000341   0.000384  -0.000000  -0.000000   0.000000   0.000000
    41  C    0.000519  -0.002809   0.002872   0.006432   0.011908  -0.000345
    42  H   -0.000014  -0.000582   0.000047  -0.000004   0.006078  -0.001416
    43  H    0.000039  -0.000015  -0.000054  -0.000049  -0.000065  -0.000091
    44  H   -0.000365   0.000383  -0.000001   0.000022  -0.001301   0.006528
              13         14         15         16         17         18
     1  P   -0.005667   0.027675   0.003849   0.009211   0.004149   0.003905
     2  C   -0.008553   0.021022  -0.004355   0.008738  -0.050421   0.026456
     3  C    0.005421  -0.004290  -0.001830   0.001059   0.023395  -0.008264
     4  C    0.301249   0.401507  -0.051323  -0.074952   0.026500  -0.050269
     5  C    0.070758  -0.084766   0.464069   0.459538  -0.008248   0.023304
     6  C    0.036209  -0.080936   0.028589  -0.016240   0.338494   0.337671
     7  C   -0.010797   0.042847  -0.027496   0.000575   0.025927   0.026792
     8  C   -0.021409   0.011562  -0.003826  -0.002454   0.003961   0.004182
     9  H   -0.000496   0.001434  -0.000018  -0.000002   0.000422  -0.000089
    10  H    0.001195  -0.000491  -0.000023  -0.000001  -0.000249  -0.000099
    11  H   -0.000001  -0.000003   0.000003  -0.000006  -0.000294  -0.000087
    12  H   -0.000023  -0.000018  -0.000004   0.000003  -0.002332   0.000395
    13  H    0.453079  -0.017744   0.004953  -0.004693  -0.000100  -0.000249
    14  H   -0.017744   0.436271  -0.006240   0.005841  -0.000090   0.000423
    15  H    0.004953  -0.006240   0.534281  -0.038065   0.000396  -0.002319
    16  H   -0.004693   0.005841  -0.038065   0.541904  -0.000087  -0.000296
    17  H   -0.000100  -0.000090   0.000396  -0.000087   0.439842  -0.020173
    18  H   -0.000249   0.000423  -0.002319  -0.000296  -0.020173   0.439837
    19  H   -0.000097  -0.000146  -0.000108   0.000013  -0.006891   0.004831
    20  H    0.000395  -0.002379   0.001121  -0.000077   0.004830  -0.006912
    21  H    0.000531  -0.000057   0.000013   0.000117  -0.000290  -0.000292
    22  H    0.000610   0.000170   0.000109   0.002484  -0.000354   0.001016
    23  H   -0.000247  -0.000164  -0.000063   0.000051   0.001025  -0.000352
    24  C    0.002070  -0.009194   0.005371  -0.001429  -0.014509  -0.014589
    25  H    0.000001   0.000009   0.000021  -0.000001   0.004450  -0.001102
    26  H   -0.000003   0.000022  -0.000222   0.000025  -0.001125   0.004397
    27  C   -0.001260   0.003939  -0.000219   0.000271  -0.003822   0.002160
    28  H    0.000004   0.000014   0.000000  -0.000000   0.000013  -0.000003
    29  H   -0.000003  -0.000008   0.000000   0.000000   0.000012   0.000001
    30  C   -0.037226   0.009005  -0.077109  -0.070304   0.002152  -0.003754
    31  H    0.004596  -0.001112   0.008664  -0.008768   0.000001   0.000012
    32  H   -0.000693   0.005110  -0.009139   0.008722  -0.000003   0.000013
    33  C   -0.000106   0.000130   0.000399  -0.000160   0.004731   0.004742
    34  H    0.000001   0.000018   0.000027   0.000000   0.000035   0.000002
    35  H    0.000000   0.000000  -0.000000   0.000000  -0.000056  -0.000056
    36  H   -0.000000  -0.000006  -0.000002   0.000000   0.000000   0.000034
    37  C    0.006414   0.002863  -0.000376   0.011928  -0.000094  -0.000803
    38  H   -0.000049  -0.000054  -0.000091  -0.000064   0.000000   0.000000
    39  H   -0.000004   0.000048  -0.001418   0.006078  -0.000000  -0.000002
    40  H    0.000022  -0.000001   0.006534  -0.001301   0.000001   0.000026
    41  C   -0.000020   0.000059  -0.000010   0.000011  -0.000802  -0.000094
    42  H    0.000000   0.000000  -0.000000  -0.000000  -0.000002  -0.000000
    43  H   -0.000000  -0.000000   0.000000   0.000000   0.000000   0.000000
    44  H   -0.000000  -0.000000   0.000000   0.000000   0.000025   0.000001
              19         20         21         22         23         24
     1  P   -0.011753  -0.012322   0.044529   0.017665   0.018086  -0.028906
     2  C    0.008636  -0.006209  -0.020909   0.060644  -0.081950  -0.098481
     3  C   -0.003510  -0.004004  -0.007558  -0.001787   0.022767   0.064002
     4  C   -0.006440   0.008975  -0.020572  -0.081971   0.060660  -0.099673
     5  C   -0.003947  -0.003442  -0.007796   0.022883  -0.001800   0.064180
     6  C   -0.023719  -0.023908   0.045720  -0.026890  -0.027017   1.149182
     7  C    0.435720   0.436069  -0.010817  -0.001081  -0.001076  -1.223822
     8  C   -0.002337  -0.002401   0.345281   0.373470   0.373188  -0.050659
     9  H   -0.002358  -0.000148  -0.000057  -0.000164   0.000172  -0.009179
    10  H    0.000402  -0.000097   0.000531  -0.000247   0.000606   0.002061
    11  H   -0.000077   0.000013   0.000116   0.000054   0.002540  -0.001438
    12  H    0.001115  -0.000106   0.000012  -0.000064   0.000107   0.005395
    13  H   -0.000097   0.000395   0.000531   0.000610  -0.000247   0.002070
    14  H   -0.000146  -0.002379  -0.000057   0.000170  -0.000164  -0.009194
    15  H   -0.000108   0.001121   0.000013   0.000109  -0.000063   0.005371
    16  H    0.000013  -0.000077   0.000117   0.002484   0.000051  -0.001429
    17  H   -0.006891   0.004830  -0.000290  -0.000354   0.001025  -0.014509
    18  H    0.004831  -0.006912  -0.000292   0.001016  -0.000352  -0.014589
    19  H    0.532974  -0.040002  -0.000006   0.000005   0.000004  -0.062946
    20  H   -0.040002   0.532531  -0.000006   0.000005   0.000005  -0.062603
    21  H   -0.000006  -0.000006   0.435515  -0.011230  -0.011202   0.000969
    22  H    0.000005   0.000005  -0.011230   0.433701  -0.015456  -0.000677
    23  H    0.000004   0.000005  -0.011202  -0.015456   0.433846  -0.000700
    24  C   -0.062946  -0.062603   0.000969  -0.000677  -0.000700   6.131367
    25  H   -0.009556   0.008552  -0.000000  -0.000003   0.000013   0.403988
    26  H    0.008558  -0.009563  -0.000000   0.000013  -0.000003   0.404150
    27  C    0.002529  -0.000929  -0.007151   0.002409  -0.009664  -0.029479
    28  H   -0.000175   0.000014   0.000001   0.000001   0.000010   0.000099
    29  H    0.000031  -0.000000   0.000029  -0.000002   0.000041   0.000083
    30  C   -0.000928   0.002496  -0.007125  -0.009617   0.002408  -0.029533
    31  H   -0.000000   0.000031   0.000029   0.000041  -0.000002   0.000082
    32  H    0.000014  -0.000171   0.000001   0.000010   0.000001   0.000104
    33  C    0.004635   0.004464   0.000007  -0.000112  -0.000112  -0.091893
    34  H   -0.001465   0.006708   0.000000   0.000000   0.000000  -0.018696
    35  H   -0.000082  -0.000082   0.000000  -0.000000  -0.000000  -0.035984
    36  H    0.006711  -0.001468   0.000000   0.000000   0.000000  -0.018549
    37  C   -0.000168   0.000616  -0.000447   0.000323   0.000085   0.000554
    38  H    0.000000  -0.000000   0.000000   0.000000   0.000000   0.000010
    39  H    0.000000  -0.000002   0.000001  -0.000001   0.000000   0.000022
    40  H    0.000000   0.000029  -0.000000   0.000002  -0.000000  -0.000128
    41  C    0.000616  -0.000167  -0.000446   0.000085   0.000324   0.000558
    42  H   -0.000002   0.000000   0.000001   0.000000  -0.000001   0.000021
    43  H   -0.000000   0.000000   0.000000   0.000000   0.000000   0.000010
    44  H    0.000029   0.000000  -0.000000  -0.000000   0.000002  -0.000123
              25         26         27         28         29         30
     1  P    0.006014   0.005733  -0.268225   0.002180   0.013548  -0.266494
     2  C    0.003854  -0.001933   0.778999  -0.018583   0.006161  -0.091097
     3  C   -0.002871   0.000307  -0.714799  -0.017691  -0.050375   0.008999
     4  C   -0.001929   0.003840  -0.091174   0.000991   0.001219   0.778186
     5  C    0.000295  -0.002814   0.009058   0.000346  -0.000344  -0.714174
     6  C   -0.021104  -0.020470  -0.244752   0.003074  -0.001074  -0.244869
     7  C   -0.016241  -0.016743   0.182862  -0.001374  -0.001276   0.182587
     8  C    0.000019   0.000045   0.074241  -0.001501  -0.000281   0.073664
     9  H    0.000022   0.000009   0.008906   0.005093  -0.001108   0.003928
    10  H   -0.000003   0.000001  -0.037147  -0.000698   0.004608  -0.001256
    11  H    0.000026  -0.000001  -0.070526   0.008726  -0.008773   0.000273
    12  H   -0.000222   0.000021  -0.076945  -0.009132   0.008662  -0.000219
    13  H    0.000001  -0.000003  -0.001260   0.000004  -0.000003  -0.037226
    14  H    0.000009   0.000022   0.003939   0.000014  -0.000008   0.009005
    15  H    0.000021  -0.000222  -0.000219   0.000000   0.000000  -0.077109
    16  H   -0.000001   0.000025   0.000271  -0.000000   0.000000  -0.070304
    17  H    0.004450  -0.001125  -0.003822   0.000013   0.000012   0.002152
    18  H   -0.001102   0.004397   0.002160  -0.000003   0.000001  -0.003754
    19  H   -0.009556   0.008558   0.002529  -0.000175   0.000031  -0.000928
    20  H    0.008552  -0.009563  -0.000929   0.000014  -0.000000   0.002496
    21  H   -0.000000  -0.000000  -0.007151   0.000001   0.000029  -0.007125
    22  H   -0.000003   0.000013   0.002409   0.000001  -0.000002  -0.009617
    23  H    0.000013  -0.000003  -0.009664   0.000010   0.000041   0.002408
    24  C    0.403988   0.404150  -0.029479   0.000099   0.000083  -0.029533
    25  H    0.558552  -0.037883  -0.000117   0.000002   0.000000   0.000165
    26  H   -0.037883   0.558398   0.000167  -0.000000   0.000000  -0.000112
    27  C   -0.000117   0.000167   6.047214   0.404822   0.414919  -0.000006
    28  H    0.000002  -0.000000   0.404822   0.560487  -0.037807   0.000017
    29  H    0.000000   0.000000   0.414919  -0.037807   0.555877  -0.000004
    30  C    0.000165  -0.000112  -0.000006   0.000017  -0.000004   6.046424
    31  H    0.000000   0.000000  -0.000004   0.000000  -0.000000   0.415273
    32  H   -0.000000   0.000002   0.000017  -0.000000   0.000000   0.404557
    33  C   -0.042205  -0.042216   0.001946  -0.000157   0.000008   0.001948
    34  H    0.008151  -0.008512   0.000013  -0.000000  -0.000000   0.000042
    35  H   -0.004553  -0.004551   0.000009   0.000000  -0.000000   0.000009
    36  H   -0.008519   0.008146   0.000043   0.000001   0.000000   0.000013
    37  C   -0.000002  -0.000051  -0.000080   0.000001  -0.000000   0.023813
    38  H   -0.000000   0.000000   0.000000   0.000000   0.000000  -0.034886
    39  H   -0.000000  -0.000000  -0.000000  -0.000000   0.000000  -0.025257
    40  H    0.000000   0.000002   0.000001   0.000000  -0.000000  -0.016182
    41  C   -0.000052  -0.000002   0.023940  -0.044516  -0.052726  -0.000080
    42  H   -0.000000  -0.000000  -0.024924   0.008212  -0.008261  -0.000000
    43  H    0.000000  -0.000000  -0.034927  -0.004536  -0.004641   0.000000
    44  H    0.000003   0.000000  -0.016450  -0.008620   0.008112   0.000001
              31         32         33         34         35         36
     1  P    0.013419   0.002262  -0.041056   0.001818   0.000822   0.001808
     2  C    0.001266   0.000929   0.006580   0.001157  -0.000014  -0.001487
     3  C   -0.000341   0.000343  -0.008380   0.000084  -0.000006  -0.000535
     4  C    0.006831  -0.019317   0.006558  -0.001488  -0.000010   0.001155
     5  C   -0.051117  -0.016959  -0.008365  -0.000527  -0.000009   0.000090
     6  C   -0.001076   0.003101  -0.276914   0.001358   0.010590   0.001453
     7  C   -0.001255  -0.001433   0.325705  -0.024981   0.018511  -0.025114
     8  C   -0.000283  -0.001492   0.004160  -0.000027  -0.000006  -0.000026
     9  H   -0.000008   0.000014   0.000126  -0.000006   0.000001   0.000018
    10  H   -0.000003   0.000004  -0.000106  -0.000000   0.000000   0.000001
    11  H    0.000000  -0.000000  -0.000161   0.000000   0.000000   0.000000
    12  H    0.000000   0.000000   0.000395  -0.000002  -0.000000   0.000027
    13  H    0.004596  -0.000693  -0.000106   0.000001   0.000000  -0.000000
    14  H   -0.001112   0.005110   0.000130   0.000018   0.000000  -0.000006
    15  H    0.008664  -0.009139   0.000399   0.000027  -0.000000  -0.000002
    16  H   -0.008768   0.008722  -0.000160   0.000000   0.000000   0.000000
    17  H    0.000001  -0.000003   0.004731   0.000035  -0.000056   0.000000
    18  H    0.000012   0.000013   0.004742   0.000002  -0.000056   0.000034
    19  H   -0.000000   0.000014   0.004635  -0.001465  -0.000082   0.006711
    20  H    0.000031  -0.000171   0.004464   0.006708  -0.000082  -0.001468
    21  H    0.000029   0.000001   0.000007   0.000000   0.000000   0.000000
    22  H    0.000041   0.000010  -0.000112   0.000000  -0.000000   0.000000
    23  H   -0.000002   0.000001  -0.000112   0.000000  -0.000000   0.000000
    24  C    0.000082   0.000104  -0.091893  -0.018696  -0.035984  -0.018549
    25  H    0.000000  -0.000000  -0.042205   0.008151  -0.004553  -0.008519
    26  H    0.000000   0.000002  -0.042216  -0.008512  -0.004551   0.008146
    27  C   -0.000004   0.000017   0.001946   0.000013   0.000009   0.000043
    28  H    0.000000  -0.000000  -0.000157  -0.000000   0.000000   0.000001
    29  H   -0.000000   0.000000   0.000008  -0.000000  -0.000000   0.000000
    30  C    0.415273   0.404557   0.001948   0.000042   0.000009   0.000013
    31  H    0.555815  -0.037798   0.000008   0.000000  -0.000000  -0.000000
    32  H   -0.037798   0.560502  -0.000155   0.000001   0.000000  -0.000000
    33  C    0.000008  -0.000155   5.500085   0.403726   0.386392   0.403642
    34  H    0.000000   0.000001   0.403726   0.547057  -0.022108  -0.033501
    35  H   -0.000000   0.000000   0.386392  -0.022108   0.508692  -0.022121
    36  H   -0.000000  -0.000000   0.403642  -0.033501  -0.022121   0.547134
    37  C   -0.052917  -0.044266  -0.001627  -0.000074   0.000002   0.000012
    38  H   -0.004641  -0.004534   0.000006  -0.000000   0.000000  -0.000000
    39  H   -0.008255   0.008210   0.000000  -0.000000  -0.000000   0.000000
    40  H    0.008111  -0.008624  -0.000015   0.000001   0.000000  -0.000000
    41  C   -0.000000   0.000001  -0.001636   0.000012   0.000003  -0.000076
    42  H    0.000000  -0.000000   0.000000   0.000000  -0.000000  -0.000000
    43  H    0.000000   0.000000   0.000006  -0.000000   0.000000  -0.000000
    44  H   -0.000000   0.000000  -0.000015  -0.000000   0.000000   0.000001
              37         38         39         40         41         42
     1  P   -0.043572   0.000253  -0.000315   0.004742  -0.043538  -0.000338
     2  C   -0.004276   0.000015  -0.000103   0.000052  -0.186304  -0.002156
     3  C    0.001609   0.000002   0.000017  -0.000030   0.167538  -0.015211
     4  C   -0.186699   0.010886  -0.002323   0.002195  -0.004307  -0.000099
     5  C    0.167994   0.017652  -0.014880  -0.031677   0.001615   0.000017
     6  C   -0.004526   0.000045   0.000887  -0.001952  -0.004481   0.000883
     7  C    0.000544   0.000039  -0.000022  -0.000341   0.000519  -0.000014
     8  C   -0.002845  -0.000015  -0.000582   0.000384  -0.002809  -0.000582
     9  H    0.000059  -0.000000   0.000000  -0.000000   0.002872   0.000047
    10  H   -0.000020  -0.000000   0.000000  -0.000000   0.006432  -0.000004
    11  H    0.000011   0.000000  -0.000000   0.000000   0.011908   0.006078
    12  H   -0.000010   0.000000  -0.000000   0.000000  -0.000345  -0.001416
    13  H    0.006414  -0.000049  -0.000004   0.000022  -0.000020   0.000000
    14  H    0.002863  -0.000054   0.000048  -0.000001   0.000059   0.000000
    15  H   -0.000376  -0.000091  -0.001418   0.006534  -0.000010  -0.000000
    16  H    0.011928  -0.000064   0.006078  -0.001301   0.000011  -0.000000
    17  H   -0.000094   0.000000  -0.000000   0.000001  -0.000802  -0.000002
    18  H   -0.000803   0.000000  -0.000002   0.000026  -0.000094  -0.000000
    19  H   -0.000168   0.000000   0.000000   0.000000   0.000616  -0.000002
    20  H    0.000616  -0.000000  -0.000002   0.000029  -0.000167   0.000000
    21  H   -0.000447   0.000000   0.000001  -0.000000  -0.000446   0.000001
    22  H    0.000323   0.000000  -0.000001   0.000002   0.000085   0.000000
    23  H    0.000085   0.000000   0.000000  -0.000000   0.000324  -0.000001
    24  C    0.000554   0.000010   0.000022  -0.000128   0.000558   0.000021
    25  H   -0.000002  -0.000000  -0.000000   0.000000  -0.000052  -0.000000
    26  H   -0.000051   0.000000  -0.000000   0.000002  -0.000002  -0.000000
    27  C   -0.000080   0.000000  -0.000000   0.000001   0.023940  -0.024924
    28  H    0.000001   0.000000  -0.000000   0.000000  -0.044516   0.008212
    29  H   -0.000000   0.000000   0.000000  -0.000000  -0.052726  -0.008261
    30  C    0.023813  -0.034886  -0.025257  -0.016182  -0.000080  -0.000000
    31  H   -0.052917  -0.004641  -0.008255   0.008111  -0.000000   0.000000
    32  H   -0.044266  -0.004534   0.008210  -0.008624   0.000001  -0.000000
    33  C   -0.001627   0.000006   0.000000  -0.000015  -0.001636   0.000000
    34  H   -0.000074  -0.000000  -0.000000   0.000001   0.000012   0.000000
    35  H    0.000002   0.000000  -0.000000   0.000000   0.000003  -0.000000
    36  H    0.000012  -0.000000   0.000000  -0.000000  -0.000076  -0.000000
    37  C    5.478306   0.386375   0.404702   0.405000   0.000013   0.000000
    38  H    0.386375   0.508785  -0.021927  -0.022314   0.000000   0.000000
    39  H    0.404702  -0.021927   0.546598  -0.033856   0.000000  -0.000000
    40  H    0.405000  -0.022314  -0.033856   0.548695  -0.000000   0.000000
    41  C    0.000013   0.000000   0.000000  -0.000000   5.478218   0.404531
    42  H    0.000000   0.000000  -0.000000   0.000000   0.404531   0.546632
    43  H    0.000000  -0.000000   0.000000   0.000000   0.386388  -0.021929
    44  H   -0.000000   0.000000   0.000000  -0.000000   0.405122  -0.033852
              43         44
     1  P    0.000260   0.004757
     2  C    0.010874   0.002060
     3  C    0.017687  -0.031387
     4  C    0.000015   0.000048
     5  C    0.000002  -0.000030
     6  C    0.000044  -0.001932
     7  C    0.000039  -0.000365
     8  C   -0.000015   0.000383
     9  H   -0.000054  -0.000001
[...]
 43,-0.14944701,-0.00867117,0.01011984,0.01195285,0.01125703,-0.0130497
 1,-0.01373572,-0.09272908,0.10518331,0.16016770,0.00013885,0.00075478,
 -0.00036432,-0.00143664,-0.00211522,-0.00064404,-0.02026692,0.00154314
 ,-0.01229224,-0.00010771,-0.00022373,-0.00002315,-0.00003787,0.0000967
 0,-0.00003015,-0.00002390,-0.00000735,0.00003270,-0.00002467,-0.000006
 89,-0.00000145,0.00006694,0.00010893,0.00005051,-0.00009533,-0.0000180
 7,-0.00024256,0.00004105,-0.00016703,-0.00001800,0.00081221,0.00133222
 ,0.00017529,0.00162789,0.00118275,0.00102726,-0.00000285,-0.00000027,0
 .00000724,0.00001924,-0.00001542,0.00000708,0.00000268,-0.00000024,0.0
 0000176,-0.00000194,-0.00000244,0.00000365,0.00004172,-0.00001821,-0.0
 0000039,0.00001248,-0.00000757,-0.00000061,0.00002342,-0.00001522,0.00
 000069,-0.00001197,0.00000165,-0.00000093,-0.00000976,-0.00000362,-0.0
 0000044,0.00002960,0.00000741,-0.00000844,-0.00000348,-0.00004645,0.00
 001470,0.00004730,-0.00002023,0.00002243,-0.00001083,0.00002449,-0.000
 00737,-0.00001500,0.00000786,-0.00000327,-0.15004512,0.02822391,-0.044
 24057,0.00709939,-0.00173861,0.00367246,-0.01750106,0.00618072,-0.0112
 8197,-0.00000581,-0.00004523,-0.00000022,-0.00000177,0.00000165,0.0000
 0221,0.00000219,0.00000025,-0.00000223,-0.00001194,0.00001180,0.000001
 81,-0.00000806,-0.00000042,-0.00000954,0.00000222,0.00000317,0.0000060
 1,0.00000810,-0.00001225,0.00000662,-0.00000789,0.00001532,-0.00000978
 ,-0.00000421,-0.00000440,-0.00000306,0.00000060,-0.00000059,0.00000083
 ,0.00000052,-0.00000004,0.00000098,0.50159954,-0.00071682,0.00197661,-
 0.00053002,-0.00388171,-0.00459521,-0.00228688,-0.02219286,0.00809473,
 -0.01392338,-0.00057145,-0.00115513,-0.00034718,-0.00023129,0.00049280
 ,-0.00015922,-0.00008031,-0.00004455,0.00004197,-0.00001937,-0.0001152
 3,0.00004329,-0.00001755,-0.00016891,-0.00007850,0.00012601,-0.0001313
 4,-0.00017398,-0.00012994,-0.00013611,0.00019635,-0.00020554,0.0009882
 5,-0.00049681,-0.00056954,0.00100526,0.00000413,0.00004853,-0.00002298
 ,0.00004001,0.00005607,-0.00002697,0.00004600,0.00001067,-0.00001690,-
 0.00000752,0.00000110,-0.00001173,0.00001311,0.00000914,0.00002831,-0.
 00000514,0.00005538,-0.00002569,-0.00004378,-0.00003769,0.00000954,0.0
 0002586,0.00001319,0.00000431,0.00001452,0.00001241,0.00000994,-0.0000
 4143,-0.00001567,-0.00002461,0.00007172,0.00000317,0.00001548,-0.00001
 201,-0.00004548,0.00008372,-0.00002312,0.00000735,-0.00002541,0.000007
 51,0.00001750,0.00000037,0.00000151,0.03068482,-0.09033575,0.01918785,
 0.01616132,-0.00519369,0.00911399,0.01584992,-0.00535171,0.01092368,-0
 .00001845,-0.00024272,-0.00002038,-0.00000182,0.00000633,0.00000608,0.
 00000413,0.00000794,-0.00000560,-0.00000099,-0.00006598,-0.00000736,0.
 00000743,0.00000578,0.00000842,0.00001259,0.00000382,-0.00002396,0.000
 00399,0.00002458,-0.00000385,-0.00005237,0.00009056,-0.00003837,-0.000
 03121,-0.00002323,-0.00002315,0.00000418,-0.00000695,0.00000645,0.0000
 0749,-0.00000733,0.00000131,0.02768175,0.56033207,-0.00033144,0.000467
 05,0.00042452,-0.00063302,-0.00128432,-0.00065371,-0.01192946,0.000811
 99,-0.00792698,-0.00000619,-0.00012160,-0.00006915,-0.00002461,0.00004
 932,-0.00000886,0.00008682,0.00012531,0.00000658,0.00001221,-0.0000289
 7,-0.00000563,-0.00000717,-0.00009201,-0.00007297,0.00004083,-0.000161
 28,0.00019622,-0.00029424,0.00009338,0.00002376,0.00144775,0.00063307,
 0.00100611,-0.00022030,0.00089334,0.00019539,0.00001097,-0.00001117,0.
 00001583,-0.00000064,0.00000619,-0.00000541,-0.00000005,-0.00000290,-0
 .00000527,0.00000386,0.00000016,-0.00000034,-0.00000933,-0.00004775,0.
 00001341,0.00000065,0.00001642,0.00003769,-0.00001125,0.00003231,-0.00
 000877,0.00001419,0.00000342,0.00001095,0.00000423,-0.00000032,-0.0000
 0604,-0.00001367,-0.00000952,0.00002143,0.00001697,0.00000886,0.000035
 36,-0.00002265,0.00002268,-0.00001912,0.00000645,-0.00002135,0.0000057
 5,0.00001051,-0.00000079,0.00000633,-0.04425503,0.01766858,-0.10711183
 ,-0.02365738,0.00786844,-0.01401763,0.01560197,-0.00490937,0.01077405,
 0.00000116,-0.00002373,-0.00000714,-0.00000045,-0.00000091,0.00000185,
 0.00000045,0.00000156,-0.00000157,0.00000490,-0.00001501,-0.00000214,0
 .00000667,0.00000028,0.00000691,-0.00000144,-0.00000053,-0.00000452,-0
 .00000266,0.00001239,-0.00000515,-0.00000772,0.00000800,0.00000013,-0.
 00000190,-0.00000248,-0.00000163,0.00000092,0.00000029,-0.00000026,0.0
 0000082,-0.00000057,-0.00000029,-0.03826171,0.01710674,0.53877386,-0.0
 0003243,-0.00009312,0.00005670,0.00011201,0.00015502,0.00017266,0.0016
 2937,0.00107410,-0.00024226,0.00002424,0.00003838,0.00001402,0.0000078
 2,-0.00001813,0.00000530,-0.00000011,-0.00000036,0.00000106,0.00000324
 ,0.00000258,-0.00000297,-0.00001557,-0.00001879,-0.00001429,0.00000806
 ,-0.00008471,0.00015989,0.00001441,0.00004399,-0.00002556,-0.00019367,
 -0.00048088,0.00030047,-0.00009370,-0.00012779,0.00005339,0.,0.0000017
 1,-0.00000235,-0.00000103,0.00000392,0.00000036,-0.00000073,0.00000006
 ,0.00000010,-0.00000078,-0.00000048,-0.00000082,-0.00000054,-0.0000100
 1,0.00000083,0.00000156,0.00000018,0.00000136,-0.00000706,0.00001028,0
 .00000030,0.00000343,0.00000192,0.00000161,-0.00000969,0.00000015,-0.0
 0000537,-0.00000195,-0.00000721,0.00001967,0.00000024,-0.00002074,-0.0
 0000442,-0.00000605,-0.00000257,-0.00000050,-0.00000057,-0.00000673,0.
 00000113,0.00000518,0.00000006,0.00000072,0.00691879,0.01544303,-0.024
 05044,-0.00438625,0.00158252,-0.00349544,0.00132389,-0.00025835,0.0006
 6283,0.00000048,0.00000923,-0.00000033,0.00000031,-0.00000003,-0.00000
 016,-0.00000005,-0.00000014,0.00000068,-0.00000292,-0.00000502,-0.0000
 0143,0.00000316,0.00000106,0.00000156,-0.00000090,-0.00000030,0.000000
 04,-0.00000043,0.00000517,-0.00000202,0.00000195,-0.00000391,0.0000016
 5,0.00000150,0.00000088,0.00000120,-0.00000029,0.00000024,-0.00000071,
 -0.00000048,0.00000026,-0.00000005,-0.06601671,-0.03733627,0.05629166,
 0.07107092,-0.00010680,-0.00008823,-0.00003990,0.00005777,0.00009814,-
 0.00018437,-0.00015980,0.00061137,-0.00084138,0.00002633,0.00005345,0.
 00001256,0.00000895,-0.00003166,0.00000755,0.00002081,0.00003011,0.000
 00338,-0.00000561,-0.00000577,-0.00000667,0.00003045,0.00003839,0.0000
 1141,-0.00013082,-0.00005542,-0.00007905,0.00001369,-0.00003450,0.0000
 2311,0.00020598,0.00054286,0.00011487,0.00006123,0.00003267,-0.0000507
 1,-0.00000245,-0.00000099,0.00000216,-0.00000422,0.00000055,-0.0000073
 2,0.00000014,0.00000011,-0.00000152,0.00000005,0.00000297,-0.00000051,
 0.00000429,-0.00001764,-0.00000658,-0.00000261,0.00000535,0.00000998,0
 .00000963,0.00000278,-0.00000329,-0.00000055,-0.00000143,0.00000305,0.
 00000728,-0.00000319,0.00001129,0.00000837,0.00000194,-0.00001232,-0.0
 0001150,-0.00000629,0.00001952,0.00000745,-0.00000556,-0.00000192,0.00
 000065,0.00000067,-0.00000065,-0.00000121,0.00000367,0.00000165,-0.002
 40070,-0.00646112,0.00780232,0.00196983,0.00036456,0.00067077,-0.00013
 864,-0.00019478,-0.00008220,-0.00000290,0.00001764,0.00000037,0.000000
 84,-0.00000172,-0.00000021,0.00000054,-0.00000013,-0.00000089,-0.00000
 252,0.00000398,-0.00000064,-0.00000023,-0.00000238,-0.00000059,-0.0000
 0190,0.00000212,0.00000319,0.00000321,-0.00000193,0.00000017,0.0000034
 8,-0.00000810,0.00000300,0.00000333,0.00000140,0.00000293,-0.00000037,
 0.00000191,-0.00000115,-0.00000069,0.00000053,-0.00000077,-0.03659648,
 -0.12177802,0.11080415,0.03919658,0.12944176,-0.00002815,0.00005837,-0
 .00007769,-0.00015911,-0.00023150,0.00037709,0.00115241,0.00054034,0.0
 0016273,-0.00001945,-0.00002742,0.00000439,0.00000038,0.00000648,-0.00
 000744,-0.00003710,-0.00002308,-0.00000342,0.00003344,0.00003823,0.000
 00712,-0.00003364,-0.00001730,-0.00001253,0.00019864,-0.00005802,0.000
 17646,0.00005327,0.00002797,-0.00001113,-0.00083798,-0.00066346,-0.000
 02218,0.00002149,0.00003841,-0.00008350,0.00000355,0.00000220,-0.00000
 039,0.00000792,-0.00000019,0.00000736,0.00000040,0.00000035,-0.0000008
 3,-0.00000443,-0.00000285,0.00000207,0.00000830,0.00000012,-0.00001361
 ,0.00000238,-0.00000876,-0.00000366,-0.00000594,-0.00000773,-0.0000006
 7,-0.00000533,-0.00000728,0.00000428,-0.00000464,-0.00000134,-0.000002
 37,0.00000015,-0.00000853,0.00002270,-0.00001960,-0.00001618,-0.000010
 43,-0.00001292,-0.00000657,-0.00000083,0.00000789,0.00000581,0.0000007
 9,-0.00000374,-0.00000651,-0.00000360,0.00368233,0.00854489,-0.0137574
 9,-0.00313753,0.00070090,-0.00020118,-0.00022370,-0.00021658,0.0008817
 9,-0.00000135,-0.00000115,-0.00000188,0.00000073,0.00000062,-0.0000004
 9,-0.00000022,-0.00000135,0.00000257,0.00001236,0.00001326,0.00000327,
 -0.00000228,-0.00000183,0.00000179,-0.00000162,-0.00000344,0.00000017,
 -0.00000701,-0.00000594,0.00000209,0.00000072,0.00000070,-0.00000046,0
 .00000033,-0.00000031,0.00000002,-0.00000138,-0.00000092,0.00000093,0.
 00000009,0.00000040,-0.00000063,0.05529870,0.11096983,-0.21352082,-0.0
 5825898,-0.12420647,0.23158872,-0.00006838,0.00062061,-0.00008133,-0.0
 0065191,-0.00134897,-0.00069840,-0.00354942,0.00316506,-0.00237247,-0.
 00015536,-0.00033980,-0.00009288,-0.00006572,0.00016060,-0.00004220,-0
 .00005702,-0.00004030,-0.00000782,0.00000577,-0.00002990,0.00002157,-0
 .00003758,-0.00009193,-0.00004537,0.00000853,-0.00002614,-0.00004004,0
 .00001876,-0.00005815,0.00007985,0.00019807,0.00038419,0.00014388,0.00
 015265,-0.00001753,-0.00017557,0.00001420,-0.00000703,0.00000949,0.000
 01644,-0.00000998,0.00001765,0.00000304,-0.00000476,-0.00000105,0.0000
 0140,-0.00000475,0.00000321,-0.00000774,0.00002187,-0.00000128,0.00002
 292,-0.00001551,-0.00002201,-0.00002017,-0.00000121,0.00001102,0.00000
 167,0.00000019,0.00000174,0.00001256,0.00000454,-0.00001366,-0.0000119
 7,-0.00001073,0.00002678,0.00000605,0.00002652,-0.00000714,-0.00002370
 ,0.00003213,-0.00000708,0.00000406,-0.00000714,0.00000172,0.00000613,-
 0.00000384,-0.00000112,-0.01424057,-0.02162950,-0.00756909,0.00109010,
 0.00009537,0.00009737,0.00047625,-0.00027649,0.00081043,-0.00000042,-0
 .00008186,-0.00000374,-0.00000132,0.00000276,0.00000238,0.00000104,0.0
 0000258,-0.00000198,0.00000568,-0.00002161,-0.00000059,-0.00000024,0.0
 0000224,0.00000268,0.00000548,-0.00000011,-0.00000975,-0.00000097,0.00
 000634,0.00000004,-0.00001744,0.00003211,-0.00001266,-0.00001180,-0.00
 000763,-0.00000904,0.00000200,-0.00000310,0.00000257,0.00000281,-0.000
 00274,0.00000115,-0.11830086,-0.10946514,-0.04290928,-0.00488785,-0.00
 643249,-0.00236495,0.12884501,0.00021925,-0.00015329,0.00014824,0.0004
 3582,0.00055087,0.00026811,0.00192132,-0.00010167,0.00118766,0.0000653
 3,0.00012024,0.00003937,0.00003079,-0.00003714,0.00002116,0.00000531,-
 0.00001699,-0.00000514,0.00000500,0.00001407,0.00000139,-0.00001475,-0
 .00000685,-0.00000001,-0.00006550,0.00002924,-0.00002796,-0.00005615,0
 .00002962,-0.00005108,0.00025771,0.00004954,-0.00007610,0.00004709,0.0
 0006885,0.00027433,-0.00000303,0.00000158,-0.00000648,-0.00000702,0.00
 000144,-0.00000190,-0.00000148,0.00000121,0.00000255,0.00000100,0.0000
 0042,-0.00000207,0.00000291,0.00001785,0.00000876,-0.00000721,0.000000
 50,-0.00000488,0.00000070,-0.00001276,0.00000622,-0.00000526,0.0000002
 2,-0.00000842,0.00000412,0.00000163,0.00000110,-0.00000402,0.00000178,
 -0.00000647,0.00001481,0.00001289,-0.00000352,0.00000789,-0.00000684,0
 .00001269,-0.00000637,0.00000892,-0.00000107,-0.00000267,-0.00000139,-
 0.00000391,0.00693372,0.01000217,0.00413193,-0.00052899,0.00061060,-0.
 00042048,-0.00060010,0.00061928,-0.00029821,0.00000688,0.00001510,0.00
 000553,-0.00000057,0.00000020,-0.00000080,-0.00000082,-0.00000020,0.00
 000020,-0.00000323,0.00000105,0.00000109,-0.00000190,0.00000236,-0.000
 00332,0.00000144,-0.00000211,-0.00000095,-0.00000114,-0.00000137,0.000
 00341,0.00000335,-0.00000358,0.00000230,0.00000010,0.00000185,0.000000
 09,0.00000054,-0.00000042,-0.00000004,0.00000015,-0.00000019,0.0000007
 5,-0.11116862,-0.21621538,-0.06645629,-0.00782852,-0.01347024,-0.00551
 302,0.11929294,0.23184966,-0.00005950,0.00039132,-0.00003505,-0.000738
 16,-0.00083254,0.00008145,-0.00235465,0.00195700,-0.00129490,-0.000097
 85,-0.00021220,-0.00005589,-0.00003691,0.00009973,-0.00003186,-0.00003
 344,-0.00003182,0.00000159,0.00000295,-0.00001575,0.00001181,-0.000025
 19,-0.00004639,-0.00002399,0.00008331,-0.00004948,0.00000578,-0.000045
 31,-0.00000567,-0.00000607,-0.00020381,-0.00020505,0.00016958,0.000170
 20,0.00043981,0.00019743,0.00001216,-0.00000606,0.00000698,0.00000906,
 -0.00000429,0.00000791,0.00000160,-0.00000402,-0.00000068,0.00000093,-
 0.00000170,0.00000245,0.00000457,0.00002089,-0.00000476,0.00001091,-0.
 00000803,-0.00001699,-0.00000700,-0.00001001,0.00001351,-0.00000407,-0
 .00000160,-0.00000172,0.00000635,0.00000405,-0.00000851,-0.00000374,-0
 .00000888,0.00001941,-0.00000312,0.00000694,-0.00001132,-0.00000686,0.
 00001414,0.00000427,-0.00000168,0.00000206,-0.00000028,0.00000250,-0.0
 0000029,-0.00000416,-0.00798883,-0.01358091,-0.00627407,0.00051323,-0.
 00037832,0.00003837,0.00041037,0.00024727,0.00064055,-0.00000150,-0.00
 005108,-0.00000026,-0.00000064,0.00000139,0.00000093,0.00000102,0.0000
 0202,-0.00000168,-0.00000354,-0.00001649,-0.00000116,-0.00000043,0.000
 00227,-0.00000086,0.00000410,0.00000017,-0.00000649,0.00000151,0.00000
 397,0.00000325,-0.00001076,0.00002009,-0.00000807,-0.00000761,-0.00000
 476,-0.00000524,0.00000125,-0.00000150,0.00000135,0.00000196,-0.000002
 10,0.00000064,-0.04288722,-0.06539672,-0.07214047,0.01404513,0.0213671
 6,0.00925642,0.04954587,0.07125980,0.07580876,-0.00004421,0.00001868,-
 0.00001245,0.00032724,-0.00014581,-0.00026323,0.00081409,0.00100048,0.
 00154053,0.00000443,-0.00001295,-0.00001126,-0.00000568,0.00000191,0.0
 0000705,-0.00005355,-0.00001595,-0.00002582,-0.00001336,-0.00004637,0.
 00000166,-0.00000280,-0.00002561,-0.00002620,0.00000143,0.00004437,0.0
 0004733,0.00028080,-0.00009869,0.00006699,-0.00005237,-0.00001931,0.00
 000308,-0.00021441,-0.00082469,-0.00075898,0.00000835,0.00000067,0.000
 00278,-0.00000160,0.00000535,0.00000451,0.00000004,-0.00000467,-0.0000
 0550,-0.00000055,0.00000007,-0.00000026,-0.00001652,-0.00002352,-0.000
 00135,0.00002747,-0.00001237,-0.00000722,-0.00001034,0.00003204,-0.000
 01065,0.00001611,0.00000621,0.00001389,0.00001717,0.00000718,0.0000002
 0,-0.00000392,-0.00000346,0.00000366,-0.00001056,0.00000899,0.00001319
 ,-0.00002121,0.00002129,-0.00002480,0.00001167,-0.00002279,0.00000277,
 0.00000897,0.00000211,0.00000806,-0.01759042,0.01500656,0.01553722,0.0
 0114039,-0.00032808,-0.00013755,-0.00363130,0.00130790,-0.00351145,-0.
 00000249,0.00000133,-0.00000190,0.00000301,-0.00000151,-0.00000093,-0.
 00000062,0.00000102,0.00000099,0.00000477,-0.00001051,-0.00000266,0.00
 000534,-0.00000154,0.00000747,-0.00000071,0.00000271,-0.00000124,0.000
 00167,0.00000742,-0.00000755,0.00000046,-0.00000056,0.00000120,0.00000
 092,-0.00000016,0.00000081,-0.00000063,0.00000052,-0.00000010,0.000000
 04,-0.00000096,-0.00000176,-0.13762365,0.08484331,0.08903762,-0.005470
 79,0.00436163,0.00468557,0.01120981,-0.00895083,-0.01030715,0.15088751
 ,-0.00008284,-0.00010045,-0.00007423,-0.00014494,0.00011799,0.00012944
 ,-0.00083801,0.00062450,0.00022536,0.00002552,0.00005764,0.00001733,0.
 00001164,-0.00003419,0.00000542,0.00002834,0.00003201,0.00001113,0.000
 02178,0.00004201,-0.00000360,0.00001756,0.00003314,0.00001841,0.000024
 40,-0.00003633,0.00000233,-0.00012963,-0.00005282,-0.00008534,-0.00001
 936,0.00002912,0.00006818,0.00022682,0.00056512,0.00014697,-0.00000781
 ,0.00000083,-0.00000085,0.00000087,-0.00000211,-0.00000453,0.00000004,
 0.00000397,0.00000072,-0.00000164,0.00000039,0.00000038,0.00000780,-0.
 00002146,-0.00000524,-0.00000885,0.00000225,0.00001942,0.00001091,-0.0
 0000594,-0.00000787,-0.00000679,-0.00000628,0.00000111,-0.00000635,-0.
 00000736,0.00000713,0.00000519,0.00000388,-0.00000651,-0.00000635,-0.0
 0001101,0.00000913,0.00000420,-0.00001740,-0.00000027,0.00000367,0.000
 00826,-0.00000193,-0.00000732,-0.00000368,-0.00000029,0.00581378,-0.00
 663489,-0.00546296,-0.00014032,-0.00018954,-0.00005344,0.00144906,0.00
 038182,0.00149602,-0.00000049,0.00001849,-0.00000157,-0.00000104,0.,0.
 00000066,0.00000020,-0.00000193,0.00000069,0.00001129,0.00002547,0.000
 00499,-0.00000554,-0.00000409,-0.00000138,-0.00000384,-0.00000172,0.00
 000586,-0.00000346,-0.00001179,0.00000214,0.00000408,-0.00000836,0.000
 00233,0.00000371,0.00000157,0.00000231,-0.00000086,0.00000057,-0.00000
 038,-0.00000114,0.00000204,0.00000013,0.08505613,-0.12745887,-0.083443
 07,-0.01126729,0.01091016,0.01008884,0.01608828,-0.01398271,-0.0149644
 4,-0.09613143,0.13573174,0.00007965,-0.00011704,-0.00005142,0.00006371
 ,0.00025091,0.00014715,0.00018291,0.00072681,0.00095533,0.00001786,0.0
 0004937,0.00002269,0.00000877,-0.00001937,0.00000534,-0.00000310,-0.00
 001299,0.00000832,-0.00001883,-0.00001249,-0.00000529,0.00000756,0.000
 02346,0.00001704,-0.00001940,0.00002381,-0.00000814,0.00002101,-0.0000
 5582,-0.00009679,0.00003260,-0.00013436,-0.00011959,0.00036914,-0.0001
 3909,0.00006912,-0.00000459,0.00000272,-0.00000447,-0.00000157,0.00000
 012,-0.00000111,-0.00000038,0.00000106,0.00000188,0.00000025,0.0000001
 4,-0.00000081,0.00000670,-0.00000467,0.00000531,0.00000447,-0.00000153
 ,-0.00000353,0.00000412,0.00000770,-0.00000091,0.00000194,0.00000633,-
 0.00000200,-0.00000845,0.00000064,-0.00000339,0.00000420,0.00000156,-0
 .00000160,0.00000377,-0.00001497,-0.00000896,0.00001770,-0.00000869,0.
 00000791,-0.00000650,-0.00000034,-0.00000242,0.00000029,0.00000421,0.0
 0000205,-0.01182200,0.01057296,0.01081742,0.00075543,-0.00012337,0.001
 07022,-0.00385554,0.00112313,-0.00097179,0.00000054,0.00000881,0.00000
 120,-0.00000054,0.00000041,0.00000016,0.00000008,-0.00000015,-0.000000
 27,-0.00000955,-0.00000125,-0.00000095,0.00000014,0.00000171,-0.000002
 36,0.00000075,0.00000256,0.00000414,0.00000498,0.00000050,-0.00000187,
 0.00000217,-0.00000382,0.00000080,0.00000123,0.00000090,0.00000079,0.0
 0000021,0.00000015,-0.00000052,-0.00000077,0.00000052,0.00000064,0.090
 00073,-0.08418195,-0.13596040,0.01431382,-0.01534551,-0.01476554,0.005
 71107,-0.00448455,-0.00633793,-0.09586658,0.09185145,0.14521454\\0.000
 00015,0.00000002,0.00000010,0.00000038,-0.00000012,-0.00000002,0.00000
 046,-0.00000026,-0.00000026,0.00000003,0.00000020,0.00000035,-0.000000
 18,0.00000029,0.00000046,-0.00000017,-0.00000004,-0.00000014,-0.000000
 30,-0.00000005,-0.00000022,0.00000030,0.00000003,0.00000018,0.00000029
 ,-0.00000011,-0.00000007,0.00000053,-0.00000007,0.00000009,0.00000055,
 -0.00000026,-0.00000024,0.00000029,-0.00000029,-0.00000040,0.00000020,
 0.00000021,0.00000048,-0.00000004,0.00000018,0.00000030,-0.00000036,0.
 00000027,0.00000034,-0.00000011,0.00000031,0.00000052,-0.00000006,-0.0
 0000012,-0.00000028,-0.00000027,0.00000004,-0.00000003,-0.00000016,-0.
 00000013,-0.00000029,-0.00000037,0.00000005,-0.00000006,0.00000046,0.0
 0000006,0.00000030,0.00000016,0.00000010,0.00000025,0.00000036,-0.0000
 0006,0.00000003,-0.00000053,-0.00000009,-0.00000039,-0.00000046,-0.000
 00019,-0.00000054,-0.00000066,-0.00000002,-0.00000031,0.00000066,-0.00
 000035,-0.00000037,0.00000058,-0.00000035,-0.00000039,0.00000083,-0.00
 000032,-0.00000023,-0.00000026,0.00000044,0.00000069,-0.00000009,0.000
 00047,0.00000081,-0.00000033,0.00000043,0.00000063,-0.00000069,-0.0000
 0011,-0.00000048,-0.00000076,-0.00000001,-0.00000034,-0.00000085,-0.00
 000014,-0.00000062,-0.00000056,-0.00000019,-0.00000057,-0.00000047,0.0
 0000056,0.00000081,-0.00000053,0.00000066,0.00000096,-0.00000041,0.000
 00058,0.00000086,-0.00000065,0.00000053,0.00000068,0.00000074,-0.00000
 051,-0.00000060,0.00000085,-0.00000052,-0.00000057,0.00000089,-0.00000
 058,-0.00000066,0.00000058,-0.00000055,-0.00000074\\\@


 NO HUMAN INVESTIGATION CAN BECOME REAL SCIENCE
 WITHOUT GOING THROUGH MATHEMATICAL PEOPLE.
 -- LEONARDO DA VINCI, IN "PENSIERI" CA. 1492
 Job cpu time:       0 days  5 hours 50 minutes  8.9 seconds.
 File lengths (MBytes):  RWF=   1024 Int=      0 D2E=      0 Chk=     20 Scr=      2
 Normal termination of Gaussian 09 at Fri Mar 26 18:21:28 2021.
