 Entering Gaussian System, Link 0=g09
 Initial command:
 /apps/gaussian/g09_e01/g09/l1.exe "/rds/general/ephemeral/user/fdp18/ephemeral/gaussian/Gau-1466238.inp" -scrdir="/rds/general/ephemeral/user/fdp18/ephemeral/gaussian/"
 Entering Link 1 = /apps/gaussian/g09_e01/g09/l1.exe PID=   1466239.
  
 Copyright (c) 1988,1990,1992,1993,1995,1998,2003,2009,2015,
            Gaussian, Inc.  All Rights Reserved.
  
 This is part of the Gaussian(R) 09 program.  It is based on
 the Gaussian(R) 03 system (copyright 2003, Gaussian, Inc.),
 the Gaussian(R) 98 system (copyright 1998, Gaussian, Inc.),
 the Gaussian(R) 94 system (copyright 1995, Gaussian, Inc.),
 the Gaussian 92(TM) system (copyright 1992, Gaussian, Inc.),
 the Gaussian 90(TM) system (copyright 1990, Gaussian, Inc.),
 the Gaussian 88(TM) system (copyright 1988, Gaussian, Inc.),
 the Gaussian 86(TM) system (copyright 1986, Carnegie Mellon
 University), and the Gaussian 82(TM) system (copyright 1983,
 Carnegie Mellon University). Gaussian is a federally registered
 trademark of Gaussian, Inc.
  
 This software contains proprietary and confidential information,
 including trade secrets, belonging to Gaussian, Inc.
  
 This software is provided under written license and may be
 used, copied, transmitted, or stored only in accord with that
 written license.
  
 The following legend is applicable only to US Government
 contracts under FAR:
  
                    RESTRICTED RIGHTS LEGEND
  
 Use, reproduction and disclosure by the US Government is
 subject to restrictions as set forth in subparagraphs (a)
 and (c) of the Commercial Computer Software - Restricted
 Rights clause in FAR 52.227-19.
  
 Gaussian, Inc.
 340 Quinnipiac St., Bldg. 40, Wallingford CT 06492
  
  
 ---------------------------------------------------------------
 Warning -- This program may not be used in any manner that
 competes with the business of Gaussian, Inc. or will provide
 assistance to any competitor of Gaussian, Inc.  The licensee
 of this program is prohibited from giving any competitor of
 Gaussian, Inc. access to this program.  By using this program,
 the user acknowledges that Gaussian, Inc. is engaged in the
 business of creating and licensing software in the field of
 computational chemistry and represents and warrants to the
 licensee that it is not a competitor of Gaussian, Inc. and that
 it will not use this program in any manner prohibited above.
 ---------------------------------------------------------------
  

 Cite this work as:
 Gaussian 09, Revision E.01,
 M. J. Frisch, G. W. Trucks, H. B. Schlegel, G. E. Scuseria, 
 M. A. Robb, J. R. Cheeseman, G. Scalmani, V. Barone, B. Mennucci, 
 G. A. Petersson, H. Nakatsuji, M. Caricato, X. Li, H. P. Hratchian, 
 A. F. Izmaylov, J. Bloino, G. Zheng, J. L. Sonnenberg, M. Hada, 
 M. Ehara, K. Toyota, R. Fukuda, J. Hasegawa, M. Ishida, T. Nakajima, 
 Y. Honda, O. Kitao, H. Nakai, T. Vreven, J. A. Montgomery, Jr., 
 J. E. Peralta, F. Ogliaro, M. Bearpark, J. J. Heyd, E. Brothers, 
 K. N. Kudin, V. N. Staroverov, T. Keith, R. Kobayashi, J. Normand, 
 K. Raghavachari, A. Rendell, J. C. Burant, S. S. Iyengar, J. Tomasi, 
 M. Cossi, N. Rega, J. M. Millam, M. Klene, J. E. Knox, J. B. Cross, 
 V. Bakken, C. Adamo, J. Jaramillo, R. Gomperts, R. E. Stratmann, 
 O. Yazyev, A. J. Austin, R. Cammi, C. Pomelli, J. W. Ochterski, 
 R. L. Martin, K. Morokuma, V. G. Zakrzewski, G. A. Voth, 
 P. Salvador, J. J. Dannenberg, S. Dapprich, A. D. Daniels, 
 O. Farkas, J. B. Foresman, J. V. Ortiz, J. Cioslowski, 
 and D. J. Fox, Gaussian, Inc., Wallingford CT, 2013.
 
 ******************************************
 Gaussian 09:  ES64L-G09RevE.01 30-Nov-2015
                26-Mar-2021 
 ******************************************
 %nprocshared=48
 Will use up to   48 processors via shared memory.
 %mem=80GB
 %chk=P4441_MP2.chk
 ----------------------------------------------------------------------
 # RMP2=(semidirect,full)/cc-pVTZ int=ultrafine symmetry=none scf=conve
 r=11 Density=current pop=(minimal,CHELPG,Dipole)
 ----------------------------------------------------------------------
 1/30=1,38=1/1;
 2/12=2,15=3,17=6,18=5,40=1/2;
 3/5=16,6=1,11=1,16=1,25=1,30=1,71=1,75=-5,116=1/1,2,3;
 4//1;
 5/5=2,6=11,38=5/2;
 8/6=4,10=90/1;
 9/15=1,16=-2/6;
 10/5=1,13=10,31=1/2;
 6/7=2,8=2,9=2,10=2,15=24,20=3,22=-1/1,2;
 99/5=1,9=1/99;
 -------------------
 Title Card Required
 -------------------
 Symbolic Z-matrix:
 Charge =  1 Multiplicity = 1
 P                    -0.51185   0.90713   2.19589 
 C                    -1.57491  -0.43891   1.58841 
 C                    -2.80974   0.02912   0.80387 
 C                     0.82077   0.19221   3.20776 
 C                     1.73623   1.22674   3.87953 
 C                    -1.48884   2.07939   3.18331 
 C                    -2.15575   1.44843   4.41419 
 C                     0.20736   1.79087   0.78697 
 H                    -1.87093  -1.02746   2.46213 
 H                    -0.94194  -1.08623   0.97244 
 H                    -2.50333   0.63971  -0.05196 
 H                    -3.43411   0.66587   1.439 
 H                     1.39429  -0.46964   2.55037 
 H                     0.34194  -0.446     3.9566 
 H                     1.14674   1.87249   4.53846 
 H                     2.18951   1.87624   3.12335 
 H                    -2.23595   2.51605   2.51382 
 H                    -0.8156    2.89095   3.475 
 H                    -2.8145    0.63052   4.10369 
 H                    -1.39455   1.00854   5.06722 
 H                     0.79927   1.10247   0.18126 
 H                     0.8492    2.59717   1.14387 
 H                    -0.58671   2.21701   0.17267 
 C                    -2.96905   2.47564   5.20973 
 H                    -3.72731   2.9176    4.55404 
 H                    -2.30953   3.2949    5.51638 
 C                    -3.64552  -1.15442   0.30268 
 H                    -3.94531  -1.76909   1.15861 
 H                    -3.02058  -1.79148  -0.3326 
 C                     2.84697   0.55609   4.69619 
 H                     3.43694  -0.08992   4.03696 
 H                     2.39306  -0.09949   5.4475 
 C                    -3.63982   1.86166   6.43862 
 H                    -2.90007   1.44128   7.12573 
 H                    -4.21174   2.61266   6.98655 
 H                    -4.32888   1.06086   6.15578 
 C                     3.76113   1.57312   5.37975 
 H                     4.54193   1.07097   5.95378 
 H                     4.25189   2.22043   4.64753 
 H                     3.20009   2.21034   6.06917 
 C                    -4.88436  -0.70497  -0.47223 
 H                    -4.60996  -0.11511  -1.3513 
 H                    -5.46114  -1.56495  -0.81732 
 H                    -5.54196  -0.09288   0.15148 
 
                          Input orientation:                          
 ---------------------------------------------------------------------
 Center     Atomic      Atomic             Coordinates (Angstroms)
 Number     Number       Type             X           Y           Z
 ---------------------------------------------------------------------
      1         15           0       -0.511848    0.907128    2.195889
      2          6           0       -1.574914   -0.438908    1.588412
      3          6           0       -2.809740    0.029115    0.803874
      4          6           0        0.820771    0.192209    3.207762
      5          6           0        1.736225    1.226741    3.879534
      6          6           0       -1.488838    2.079391    3.183312
      7          6           0       -2.155751    1.448429    4.414192
      8          6           0        0.207357    1.790872    0.786966
      9          1           0       -1.870927   -1.027456    2.462131
     10          1           0       -0.941935   -1.086229    0.972435
     11          1           0       -2.503328    0.639710   -0.051961
     12          1           0       -3.434114    0.665865    1.438999
     13          1           0        1.394286   -0.469641    2.550374
     14          1           0        0.341945   -0.445999    3.956601
     15          1           0        1.146743    1.872490    4.538461
     16          1           0        2.189509    1.876238    3.123345
     17          1           0       -2.235948    2.516055    2.513816
     18          1           0       -0.815597    2.890950    3.474998
     19          1           0       -2.814505    0.630518    4.103690
     20          1           0       -1.394554    1.008545    5.067221
     21          1           0        0.799269    1.102471    0.181259
     22          1           0        0.849204    2.597165    1.143873
     23          1           0       -0.586706    2.217012    0.172668
     24          6           0       -2.969054    2.475641    5.209731
     25          1           0       -3.727312    2.917598    4.554044
     26          1           0       -2.309532    3.294898    5.516383
     27          6           0       -3.645517   -1.154417    0.302683
     28          1           0       -3.945311   -1.769092    1.158612
     29          1           0       -3.020584   -1.791485   -0.332602
     30          6           0        2.846973    0.556093    4.696186
     31          1           0        3.436940   -0.089916    4.036964
     32          1           0        2.393057   -0.099493    5.447501
     33          6           0       -3.639819    1.861661    6.438618
     34          1           0       -2.900075    1.441276    7.125732
     35          1           0       -4.211737    2.612659    6.986549
     36          1           0       -4.328883    1.060862    6.155776
     37          6           0        3.761133    1.573117    5.379746
     38          1           0        4.541934    1.070968    5.953781
     39          1           0        4.251890    2.220428    4.647528
     40          1           0        3.200085    2.210337    6.069167
     41          6           0       -4.884361   -0.704973   -0.472234
     42          1           0       -4.609957   -0.115111   -1.351298
     43          1           0       -5.461136   -1.564952   -0.817325
     44          1           0       -5.541959   -0.092885    0.151478
 ---------------------------------------------------------------------
                    Distance matrix (angstroms):
                    1          2          3          4          5
     1  P    0.000000
     2  C    1.819602   0.000000
     3  C    2.826468   1.536015   0.000000
     4  C    1.819579   2.959714   4.357280   0.000000
     5  C    2.826773   4.357438   5.617811   1.536096   0.000000
     6  C    1.817612   2.982104   3.407366   2.982674   3.407751
     7  C    2.813591   3.447383   3.934025   3.448659   3.934778
     8  C    1.811994   2.964916   3.493845   2.965173   3.495663
     9  H    2.379201   1.094256   2.178883   3.047751   4.483524
    10  H    2.378084   1.095040   2.181995   3.120612   4.579694
    11  H    3.015018   2.171680   1.095065   4.677145   5.811633
    12  H    3.028321   2.167827   1.094841   4.632162   5.744841
    13  H    2.377919   3.121292   4.579613   1.095045   2.182041
    14  H    2.379080   3.046755   4.483140   1.094233   2.178994
    15  H    3.028282   4.631713   5.744470   2.168032   1.094836
    16  H    3.016070   4.678333   5.812426   2.171756   1.095050
    17  H    2.379548   3.166251   3.072134   3.901968   4.393823
    18  H    2.379902   3.901759   4.393360   3.167384   3.073279
    19  H    3.003073   3.001146   3.354176   3.769620   4.595092
    20  H    3.005662   3.772235   4.597625   3.005272   3.355591
    21  H    2.411622   3.161119   3.816371   3.160500   3.817142
    22  H    2.411519   3.910461   4.483119   3.169268   3.185704
    23  H    2.411394   3.167775   3.182325   3.910577   4.485254
    24  C    4.193011   4.853058   5.042068   4.856410   5.046665
    25  H    4.465657   4.969297   4.821726   5.470400   5.758836
    26  H    4.467527   5.468997   5.755283   4.975460   4.829565
    27  C    4.201676   2.540167   1.533122   5.495509   6.886721
    28  H    4.475127   2.751890   2.156133   5.546283   6.975549
    29  H    4.468728   2.758572   2.156529   5.587954   7.034132
    30  C    4.201951   5.495578   6.886669   2.540337   1.533118
    31  H    4.469517   5.588907   7.034775   2.758897   2.156572
    32  H    4.474901   5.545499   6.974877   2.752018   2.156118
    33  C    5.356873   5.751604   5.983109   5.755204   5.987812
    34  H    5.503843   5.996086   6.478290   5.545751   5.663841
    35  H    6.288755   6.738307   6.845857   6.742696   6.852194
    36  H    5.502191   5.540259   5.658194   5.997023   6.480303
    37  C    5.370182   6.848055   8.154687   3.907704   2.543789
    38  H    6.299945   7.664985   9.036267   4.707430   3.492674
    39  H    5.516202   7.098021   8.333195   4.237826   2.811725
    40  H    5.520787   7.063730   8.282454   4.233393   2.811555
    41  C    5.369974   3.907620   2.543893   6.848054   8.154850
    42  H    5.515615   4.237715   2.811823   7.097343   8.332839
    43  H    6.299689   4.707257   3.492740   7.664939   9.036373
    44  H    5.521020   4.233434   2.811677   7.064452   8.283223
                    6          7          8          9         10
     6  C    0.000000
     7  C    1.535562   0.000000
     8  C    2.950050   4.342617   0.000000
     9  H    3.212256   3.165703   3.881806   0.000000
    10  H    3.899773   4.443370   3.103705   1.756608   0.000000
    11  H    3.683594   4.552073   3.062154   3.082212   2.542872
    12  H    2.970654   3.331426   3.866665   2.521446   3.081959
    13  H    3.900074   4.444724   3.102955   3.313693   2.885827
    14  H    3.213617   3.168080   3.881790   2.732826   3.311116
    15  H    2.970778   3.331927   3.868181   4.671955   5.082630
    16  H    3.684440   4.553085   3.065107   5.035453   4.817527
    17  H    1.094110   2.181212   3.078578   3.562637   4.126351
    18  H    1.094058   2.181505   3.079306   4.182526   4.700716
    19  H    2.168806   1.095148   4.634515   2.516730   4.032182
    20  H    2.169034   1.095155   4.636673   3.340467   4.621710
    21  H    3.898991   5.173931   1.091392   4.107178   2.906572
    22  H    3.145448   4.587411   1.090623   4.719618   4.099386
    23  H    3.145912   4.587281   1.090639   4.173420   3.417194
    24  C    2.540556   1.532811   5.488110   4.585507   5.894981
    25  H    2.755406   2.155880   5.562554   4.835877   6.051187
    26  H    2.755760   2.155903   5.564549   5.310703   6.458487
    27  C    4.838058   5.089079   4.873797   2.797946   2.786139
    28  H    4.994446   4.914649   5.482346   2.559737   3.085649
    29  H    5.448998   5.811802   4.950386   3.117048   2.553682
    30  C    4.838231   5.089502   4.875885   5.455017   5.560519
    31  H    5.449578   5.812658   4.952783   5.615383   5.436775
    32  H    4.994316   4.914818   5.483735   5.287259   5.667630
    33  C    3.907831   2.543918   6.837174   5.223832   6.771099
    34  H    4.235735   2.811852   7.068119   5.376146   6.934381
    35  H    4.707777   3.492782   7.657582   6.261005   7.780934
    36  H    4.235422   2.811730   7.066436   4.903635   6.553506
    37  C    5.713390   5.996445   5.811228   6.855331   6.972472
    38  H    6.712870   6.882717   6.782536   7.597354   7.716225
    39  H    5.926193   6.458195   5.607736   7.267296   7.170502
    40  H    5.507386   5.657245   6.085558   7.014925   7.348493
    41  C    5.713605   5.996634   5.808651   4.218445   4.216058
    42  H    5.926206   6.458225   5.604593   4.782980   4.449403
    43  H    6.713083   6.882936   6.779905   4.892170   4.884218
    44  H    5.508048   5.657985   6.083340   4.437231   4.777125
                   11         12         13         14         15
    11  H    0.000000
    12  H    1.757842   0.000000
    13  H    4.816036   5.083107   0.000000
    14  H    5.034175   4.672600   1.756547   0.000000
    15  H    5.992891   5.660995   3.082101   2.522231   0.000000
    16  H    5.799508   5.993927   2.542406   3.082303   1.757819
    17  H    3.189886   2.452353   4.700459   4.183411   3.994492
    18  H    4.511758   3.994111   4.126995   3.564699   2.453364
    19  H    4.167296   2.736009   4.619205   3.338218   4.174087
    20  H    5.250851   4.176270   4.036977   2.522816   2.735723
    21  H    3.343006   4.437800   2.904873   4.106107   4.438342
    22  H    4.062157   4.707848   3.417698   4.174877   3.483807
    23  H    2.492344   3.481003   4.098283   4.719340   4.709957
    24  C    5.592222   4.208324   5.897932   4.590101   4.213571
    25  H    5.282252   3.854837   6.459012   5.313150   4.984867
    26  H    6.172037   4.980116   6.056998   4.843300   3.863342
    27  C    2.156214   2.156231   5.560633   5.454615   7.075997
    28  H    3.057307   2.503788   5.668938   5.287710   7.114317
    29  H    2.501403   3.057474   5.435982   5.613751   7.383670
    30  C    7.153853   7.076255   2.786923   2.797560   2.156052
    31  H    7.248341   7.384579   2.554717   3.116448   3.057374
    32  H    7.400344   7.114055   3.086729   2.559279   2.503671
    33  C    6.701671   5.144749   6.774631   5.228781   5.149941
    34  H    7.233201   5.764147   6.559500   4.910792   4.822515
    35  H    7.506784   5.930431   7.785096   6.266737   5.937533
    36  H    6.484290   4.817118   6.935130   5.378070   5.766882
    37  C    8.343750   8.253737   4.216654   4.218177   2.762683
    38  H    9.267720   9.174133   4.885115   4.891812   3.764690
    39  H    8.379549   8.472661   4.449767   4.782769   3.126482
    40  H    8.512579   8.236289   4.777562   4.437118   2.583296
    41  C    2.766608   2.763191   6.972299   6.855358   8.253763
    42  H    2.587647   3.127025   7.169356   7.266678   8.472273
    43  H    3.767618   3.765150   7.716081   7.597248   9.174122
    44  H    3.132309   2.583877   7.349023   7.015980   8.236932
                   16         17         18         19         20
    16  H    0.000000
    17  H    4.512822   0.000000
    18  H    3.191232   1.755510   0.000000
    19  H    5.249100   2.533314   3.082278   0.000000
    20  H    4.168579   3.082273   2.532551   1.757144   0.000000
    21  H    3.344750   4.080636   4.081075   5.354210   5.356707
    22  H    2.496890   3.376609   2.879586   5.104016   4.790702
    23  H    4.065709   2.879305   3.378160   4.788840   5.105845
    24  C    5.596701   2.794107   2.796275   2.156778   2.156787
    25  H    6.175766   2.558893   3.105339   2.503352   3.057710
    26  H    5.289668   3.102808   2.561692   3.057715   2.503266
    27  C    7.154616   4.510915   5.868307   4.280681   5.696144
    28  H    7.401663   4.808428   6.072622   3.963626   5.431284
    29  H    7.248505   5.222322   6.425339   5.058582   6.296207
    30  C    2.156124   5.868584   4.511905   5.692883   4.281698
    31  H    2.501309   6.425942   5.223547   6.293174   5.060769
    32  H    3.057229   6.072503   4.809260   5.427471   3.964639
    33  C    6.706140   4.219379   4.221222   2.765637   2.765819
    34  H    6.489387   4.781839   4.446848   3.130078   2.586758
    35  H    7.512829   4.890646   4.893077   3.767229   3.767429
    36  H    7.235324   4.445429   4.783197   2.586425   3.130172
    37  C    2.766447   6.713246   5.129446   6.764305   5.195915
    38  H    3.767457   7.737010   6.177366   7.598291   6.002648
    39  H    2.587473   6.836093   5.244412   7.263436   5.790262
    40  H    3.132212   6.502649   4.828940   6.521827   4.853753
    41  C    8.344488   5.128899   6.713132   5.196819   6.767603
    42  H    8.379775   5.243858   6.835693   5.791071   7.266278
    43  H    9.268389   6.176807   7.736932   6.003426   7.601831
    44  H    8.513814   4.828759   6.502888   4.856161   6.525231
                   21         22         23         24         25
    21  H    0.000000
    22  H    1.778547   0.000000
    23  H    1.778540   1.774710   0.000000
    24  C    6.432060   5.578984   5.578035   0.000000
    25  H    6.550257   5.716331   5.436053   1.095539   0.000000
    26  H    6.552475   5.439052   5.717102   1.095530   1.754580
    27  C    4.986423   5.914769   4.554093   6.141176   5.887449
    28  H    5.631353   6.484735   5.304841   5.948311   5.791506
    29  H    4.819783   6.034525   4.716683   6.994889   6.823066
    30  C    4.987604   4.558068   5.917012   6.146102   6.986997
    31  H    4.821364   4.720885   6.036922   6.999588   7.787106
    32  H    5.631890   5.308169   6.486066   5.953158   6.881861
    33  C    7.709502   6.980446   6.979248   1.528745   2.162008
    34  H    7.875636   7.153727   7.368754   2.178470   3.078543
    35  H    8.585035   7.729827   7.728283   2.172583   2.498947
    36  H    7.873661   7.368310   7.151094   2.178471   2.524856
    37  C    6.001534   5.241242   6.814101   6.792560   7.652857
    38  H    6.879720   6.253059   7.812659   7.677347   8.587767
    39  H    5.754822   4.898551   6.590630   7.247291   8.010146
    40  H    6.454359   5.471271   7.007749   6.234364   7.126335
    41  C    5.999797   6.810998   5.236767   6.787447   6.302797
    42  H    5.752475   6.586711   4.893650   7.242352   6.696973
    43  H    6.877862   7.809603   6.248472   7.672175   7.207704
    44  H    6.452979   7.004869   5.467230   6.229212   5.633696
                   26         27         28         29         30
    26  H    0.000000
    27  C    6.983117   0.000000
    28  H    6.878221   1.095589   0.000000
    29  H    7.783798   1.095438   1.754806   0.000000
    30  C    5.896043   8.023786   8.003501   8.076389   0.000000
    31  H    6.831368   8.077079   8.099516   7.980480   1.095428
    32  H    5.800084   8.002899   7.833073   8.098144   1.095585
    33  C    2.162025   6.837138   6.415150   7.718701   6.842445
    34  H    2.524809   7.338072   6.856055   8.129699   6.301968
    35  H    2.499045   7.693213   7.296271   8.624691   7.700689
    36  H    3.078558   6.295486   5.755642   7.207398   7.340171
    37  C    6.311590   9.384800   9.400937   9.483837   1.528817
    38  H    7.216632  10.194194  10.153468  10.242262   2.172449
    39  H    6.705344   9.624775   9.761296   9.684318   2.178570
    40  H    5.642493   9.562227   9.539711   9.782329   2.178598
    41  C    7.648023   1.528801   2.161903   2.161867   9.384902
    42  H    8.005320   2.178522   3.078483   2.524693   9.624364
    43  H    8.582925   2.172425   2.498745   2.498513  10.194229
    44  H    7.120945   2.178579   2.524535   3.078459   9.562935
                   31         32         33         34         35
    31  H    0.000000
    32  H    1.754821   0.000000
    33  C    7.723802   6.420595   0.000000
    34  H    7.214069   5.762610   1.093650   0.000000
    35  H    8.631699   7.303954   1.091474   1.764077   0.000000
    36  H    8.131523   6.858029   1.093658   1.768339   1.764080
    37  C    2.161908   2.161909   7.481883   6.887492   8.199337
    38  H    2.498570   2.498794   8.234158   7.542817   8.948195
    39  H    2.524802   3.078514   8.100357   7.609150   8.789644
    40  H    3.078492   2.524496   6.858744   6.238568   7.479209
    41  C    9.484472   9.400568   7.476388   8.140815   8.191004
    42  H    9.684346   9.760436   8.095158   8.786698   8.781742
    43  H   10.242832  10.153027   8.228461   8.870658   8.939456
    44  H    9.783539   9.540041   6.853212   7.614027   7.470451
                   36         37         38         39         40
    36  H    0.000000
    37  C    8.143279   0.000000
    38  H    8.873123   1.091476   0.000000
    39  H    8.789145   1.093616   1.763996   0.000000
    40  H    7.616703   1.093675   1.764096   1.768460   0.000000
    41  C    6.881660  10.685501  11.545678  10.873869  10.800335
    42  H    7.603820  10.873464  11.769795  10.953218  11.021242
    43  H    7.536646  11.545623  12.363549  11.770156  11.691592
    44  H    6.233320  10.800827  11.692142  11.022040  10.804962
                   41         42         43         44
    41  C    0.000000
    42  H    1.093612   0.000000
    43  H    1.091476   1.763993   0.000000
    44  H    1.093666   1.768462   1.764113   0.000000
 Symmetry turned off by external request.
 Stoichiometry    C13H30P
 Rotational constants (GHZ):      0.5838845      0.2877114      0.2148739
 Standard basis: CC-pVTZ (5D, 7F)
   844 basis functions,  1281 primitive gaussians,   944 cartesian basis functions
    61 alpha electrons       61 beta electrons
       nuclear repulsion energy      1089.2911917782 Hartrees.
 NAtoms=   44 NActive=   44 NUniq=   44 SFac= 1.00D+00 NAtFMM=   60 NAOKFM=F Big=F
 Integral buffers will be    131072 words long.
 Raffenetti 1 integral format.
 Two-electron integral symmetry is turned off.
 One-electron integrals computed using PRISM.
 NBasis=   844 RedAO= T EigKep=  2.23D-04  NBF=   844
 NBsUse=   844 1.00D-06 EigRej= -1.00D+00 NBFU=   844
 ExpMin= 9.71D-02 ExpMax= 3.12D+05 ExpMxC= 9.87D+02 IAcc=3 IRadAn=         5 AccDes= 0.00D+00
 Harris functional with IExCor=  205 and IRadAn=       5 diagonalized for initial guess.
 HarFok:  IExCor=  205 AccDes= 0.00D+00 IRadAn=         5 IDoV= 1 UseB2=F ITyADJ=14
 ICtDFT=  3500011 ScaDFX=  1.000000  1.000000  1.000000  1.000000
 FoFCou: FMM=F IPFlag=           0 FMFlag=      100000 FMFlg1=           0
         NFxFlg=           0 DoJE=T BraDBF=F KetDBF=T FulRan=T
         wScrn=  0.000000 ICntrl=     500 IOpCl=  0 I1Cent=   200000004 NGrid=           0
         NMat0=    1 NMatS0=      1 NMatT0=    0 NMatD0=    1 NMtDS0=    0 NMtDT0=    0
 Symmetry not used in FoFCou.
 Requested convergence on RMS density matrix=1.00D-11 within 128 cycles.
 Requested convergence on MAX density matrix=1.00D-09.
 Requested convergence on             energy=1.00D-09.
 No special actions if energy rises.
 Integral accuracy reduced to 1.0D-05 until final iterations.
 Initial convergence to 1.0D-05 achieved.  Increase integral accuracy.
 SCF Done:  E(RHF) =  -850.533317710     A.U. after   16 cycles
            NFock= 16  Conv=0.83D-11     -V/T= 2.0009
 Range of M.O.s used for correlation:     1   844
 NBasis=   844 NAE=    61 NBE=    61 NFC=     0 NFV=     0
 NROrb=    844 NOA=    61 NOB=    61 NVA=   783 NVB=   783

 **** Warning!!: The largest alpha MO coefficient is  0.15855334D+02

 Disk-based method using ON**2 memory for 61 occupieds at a time.
 Estimated scratch disk usage= 72925745760 words.
 Actual    scratch disk usage= 66666533472 words.
 JobTyp=1 Pass  1:  I=   1 to  61 NPSUse= 48 ParTrn=T ParDer=T DoDerP=T.
 Spin components of T(2) and E(2):
     alpha-alpha T2 =       0.9560435338D-01 E2=     -0.2942668942D+00
     alpha-beta  T2 =       0.5953660861D+00 E2=     -0.2107962599D+01
     beta-beta   T2 =       0.9560435338D-01 E2=     -0.2942668942D+00
 ANorm=    0.1336628143D+01
 E2 =    -0.2696496387D+01 EUMP2 =    -0.85322981409750D+03
          Differentiating once with respect to electric field.
                with respect to dipole field.
          Electric field/nuclear overlap derivatives assumed to be zero.
          There are     1 degrees of freedom in the 1st order CPHF.  IDoFFX=0 NUNeed=     1.
 LinEq1:  Iter=  0 NonCon=     1 RMS=1.42D-03 Max=3.25D-02 NDo=     1
 AX will form     1 AO Fock derivatives at one time.
 LinEq1:  Iter=  1 NonCon=     1 RMS=3.70D-04 Max=7.39D-03 NDo=     1
 LinEq1:  Iter=  2 NonCon=     1 RMS=8.69D-05 Max=1.86D-03 NDo=     1
 LinEq1:  Iter=  3 NonCon=     1 RMS=1.89D-05 Max=6.18D-04 NDo=     1
 LinEq1:  Iter=  4 NonCon=     1 RMS=5.70D-06 Max=1.55D-04 NDo=     1
 LinEq1:  Iter=  5 NonCon=     1 RMS=1.13D-06 Max=3.90D-05 NDo=     1
 LinEq1:  Iter=  6 NonCon=     1 RMS=2.52D-07 Max=1.07D-05 NDo=     1
 LinEq1:  Iter=  7 NonCon=     1 RMS=7.33D-08 Max=2.05D-06 NDo=     1
 LinEq1:  Iter=  8 NonCon=     1 RMS=1.95D-08 Max=6.62D-07 NDo=     1
 LinEq1:  Iter=  9 NonCon=     1 RMS=4.69D-09 Max=1.55D-07 NDo=     1
 LinEq1:  Iter= 10 NonCon=     1 RMS=1.41D-09 Max=3.94D-08 NDo=     1
 LinEq1:  Iter= 11 NonCon=     1 RMS=3.89D-10 Max=8.12D-09 NDo=     1
 LinEq1:  Iter= 12 NonCon=     1 RMS=9.18D-11 Max=2.63D-09 NDo=     1
 LinEq1:  Iter= 13 NonCon=     0 RMS=2.32D-11 Max=4.19D-10 NDo=     1
 Linear equations converged to 1.000D-10 1.000D-09 after    13 iterations.
 End of Minotr F.D. properties file   721 does not exist.
 End of Minotr F.D. properties file   722 does not exist.
 End of Minotr F.D. properties file   788 does not exist.

 **********************************************************************

            Population analysis using the MP2 density.

 **********************************************************************

 Alpha  occ. eigenvalues --  -80.16358 -11.39210 -11.39166 -11.39164 -11.39077
 Alpha  occ. eigenvalues --  -11.36567 -11.36527 -11.36527 -11.33735 -11.33667
 Alpha  occ. eigenvalues --  -11.33666 -11.31306 -11.31225 -11.31225  -7.70256
 Alpha  occ. eigenvalues --   -5.59777  -5.59764  -5.59757  -1.25597  -1.21072
 Alpha  occ. eigenvalues --   -1.20751  -1.16953  -1.11587  -1.11354  -1.11321
 Alpha  occ. eigenvalues --   -1.02742  -1.00425  -0.99118  -0.92220  -0.92044
 Alpha  occ. eigenvalues --   -0.91950  -0.87923  -0.79805  -0.79743  -0.78252
 Alpha  occ. eigenvalues --   -0.74981  -0.74912  -0.73133  -0.71798  -0.71365
 Alpha  occ. eigenvalues --   -0.70270  -0.70192  -0.69950  -0.69011  -0.67936
 Alpha  occ. eigenvalues --   -0.67229  -0.65822  -0.64985  -0.63727  -0.63499
 Alpha  occ. eigenvalues --   -0.63167  -0.62570  -0.60424  -0.59685  -0.59446
 Alpha  occ. eigenvalues --   -0.58840  -0.58651  -0.58600  -0.58539  -0.57626
 Alpha  occ. eigenvalues --   -0.56608
 Alpha virt. eigenvalues --   -0.00454   0.01548   0.01572   0.02557   0.03440
 Alpha virt. eigenvalues --    0.03686   0.05066   0.05240   0.05833   0.06717
 Alpha virt. eigenvalues --    0.06791   0.08461   0.08505   0.08773   0.09518
 Alpha virt. eigenvalues --    0.09537   0.10246   0.10345   0.10814   0.12138
 Alpha virt. eigenvalues --    0.12278   0.12691   0.12986   0.13348   0.13663
 Alpha virt. eigenvalues --    0.14148   0.14698   0.14906   0.15266   0.15587
 Alpha virt. eigenvalues --    0.16346   0.16471   0.16622   0.17948   0.19370
 Alpha virt. eigenvalues --    0.19374   0.21020   0.21124   0.22801   0.23559
 Alpha virt. eigenvalues --    0.25251   0.26255   0.26435   0.26806   0.27303
 Alpha virt. eigenvalues --    0.27453   0.28092   0.29520   0.29622   0.30883
 Alpha virt. eigenvalues --    0.31319   0.31629   0.32408   0.33058   0.33754
 Alpha virt. eigenvalues --    0.33858   0.34744   0.35012   0.36139   0.36466
 Alpha virt. eigenvalues --    0.37730   0.38499   0.39297   0.40503   0.40926
 Alpha virt. eigenvalues --    0.41289   0.42341   0.42461   0.42813   0.44478
 Alpha virt. eigenvalues --    0.45602   0.45881   0.46594   0.46937   0.47022
 Alpha virt. eigenvalues --    0.48487   0.49155   0.49240   0.49485   0.49595
 Alpha virt. eigenvalues --    0.49743   0.50384   0.51562   0.51788   0.52476
 Alpha virt. eigenvalues --    0.52590   0.52960   0.52964   0.53717   0.53720
 Alpha virt. eigenvalues --    0.54681   0.55008   0.55029   0.55459   0.55482
 Alpha virt. eigenvalues --    0.55555   0.56583   0.56794   0.57216   0.57496
 Alpha virt. eigenvalues --    0.57674   0.57687   0.57970   0.58421   0.58791
 Alpha virt. eigenvalues --    0.59618   0.60281   0.61345   0.61355   0.61390
 Alpha virt. eigenvalues --    0.62532   0.63211   0.64115   0.64472   0.64682
 Alpha virt. eigenvalues --    0.65545   0.66388   0.67826   0.70042   0.71082
 Alpha virt. eigenvalues --    0.72330   0.72793   0.73196   0.73949   0.76138
 Alpha virt. eigenvalues --    0.76185   0.76740   0.78616   0.78846   0.79958
 Alpha virt. eigenvalues --    0.80732   0.81815   0.82233   0.82251   0.83032
 Alpha virt. eigenvalues --    0.83182   0.83590   0.84138   0.85303   0.85897
 Alpha virt. eigenvalues --    0.88003   0.88522   0.89679   0.90287   0.90451
 Alpha virt. eigenvalues --    0.91390   0.91578   0.92141   0.93590   0.94719
 Alpha virt. eigenvalues --    0.95513   0.95562   0.97097   0.97424   0.98908
 Alpha virt. eigenvalues --    0.99848   1.00315   1.00681   1.01203   1.01961
 Alpha virt. eigenvalues --    1.02126   1.03409   1.03599   1.06283   1.07328
 Alpha virt. eigenvalues --    1.08560   1.08612   1.09406   1.10216   1.11347
 Alpha virt. eigenvalues --    1.11423   1.11884   1.12256   1.12637   1.12871
 Alpha virt. eigenvalues --    1.13313   1.14023   1.14114   1.14464   1.15548
 Alpha virt. eigenvalues --    1.17860   1.18528   1.18575   1.19068   1.19466
 Alpha virt. eigenvalues --    1.19887   1.20154   1.20746   1.21503   1.21808
 Alpha virt. eigenvalues --    1.21850   1.22267   1.22543   1.22941   1.23654
 Alpha virt. eigenvalues --    1.24374   1.24857   1.25485   1.26210   1.26860
 Alpha virt. eigenvalues --    1.26959   1.27894   1.27944   1.28509   1.29250
 Alpha virt. eigenvalues --    1.29503   1.30100   1.30136   1.30868   1.31005
 Alpha virt. eigenvalues --    1.31669   1.31724   1.32406   1.32964   1.33533
 Alpha virt. eigenvalues --    1.33966   1.34419   1.34504   1.35181   1.35742
 Alpha virt. eigenvalues --    1.36712   1.37529   1.37585   1.38182   1.38806
 Alpha virt. eigenvalues --    1.39929   1.40411   1.42019   1.42327   1.43475
 Alpha virt. eigenvalues --    1.43853   1.44471   1.45592   1.45732   1.45804
 Alpha virt. eigenvalues --    1.46299   1.46624   1.47440   1.47653   1.48493
 Alpha virt. eigenvalues --    1.49164   1.49606   1.50787   1.51181   1.51534
 Alpha virt. eigenvalues --    1.51807   1.51913   1.53450   1.54712   1.55221
 Alpha virt. eigenvalues --    1.55339   1.55629   1.56922   1.58054   1.58485
 Alpha virt. eigenvalues --    1.58705   1.59658   1.59693   1.60232   1.62501
 Alpha virt. eigenvalues --    1.63382   1.64377   1.66001   1.66601   1.66828
 Alpha virt. eigenvalues --    1.68089   1.68183   1.68194   1.69281   1.69456
 Alpha virt. eigenvalues --    1.70191   1.71085   1.71087   1.71375   1.72617
 Alpha virt. eigenvalues --    1.73162   1.73828   1.75186   1.75531   1.76643
 Alpha virt. eigenvalues --    1.76648   1.77221   1.77847   1.81003   1.82649
 Alpha virt. eigenvalues --    1.83266   1.84465   1.87853   1.88049   1.90883
 Alpha virt. eigenvalues --    1.92419   1.96469   1.97215   2.00584   2.01142
 Alpha virt. eigenvalues --    2.01301   2.02952   2.06933   2.10056   2.10152
 Alpha virt. eigenvalues --    2.14310   2.36442   2.42347   2.43654   2.44256
 Alpha virt. eigenvalues --    2.45370   2.45549   2.46379   2.47416   2.47950
 Alpha virt. eigenvalues --    2.50774   2.51825   2.52192   2.53717   2.55999
 Alpha virt. eigenvalues --    2.56175   2.57949   2.58566   2.59192   2.59474
 Alpha virt. eigenvalues --    2.59559   2.60501   2.61089   2.61868   2.63595
 Alpha virt. eigenvalues --    2.64198   2.66154   2.67938   2.68688   2.68812
 Alpha virt. eigenvalues --    2.69195   2.69910   2.70227   2.70916   2.72621
 Alpha virt. eigenvalues --    2.73026   2.73573   2.73675   2.75161   2.75983
 Alpha virt. eigenvalues --    2.77929   2.77974   2.78819   2.79393   2.80335
 Alpha virt. eigenvalues --    2.80865   2.81135   2.82210   2.82840   2.83611
 Alpha virt. eigenvalues --    2.84074   2.85270   2.85969   2.87109   2.87720
 Alpha virt. eigenvalues --    2.89257   2.89428   2.90692   2.91146   2.92048
 Alpha virt. eigenvalues --    2.92391   2.92395   2.92722   2.93167   2.94711
 Alpha virt. eigenvalues --    2.94819   2.95671   2.96732   2.97076   2.99163
 Alpha virt. eigenvalues --    2.99398   3.00498   3.01706   3.01814   3.02532
 Alpha virt. eigenvalues --    3.02909   3.03488   3.04610   3.04851   3.06443
 Alpha virt. eigenvalues --    3.07075   3.07371   3.07590   3.08345   3.09512
 Alpha virt. eigenvalues --    3.09693   3.11126   3.11671   3.12162   3.12312
 Alpha virt. eigenvalues --    3.13541   3.14964   3.15977   3.16292   3.16626
 Alpha virt. eigenvalues --    3.17947   3.18269   3.18719   3.19770   3.20765
 Alpha virt. eigenvalues --    3.21141   3.22396   3.22856   3.23396   3.24034
 Alpha virt. eigenvalues --    3.24181   3.24325   3.24879   3.25372   3.25420
 Alpha virt. eigenvalues --    3.25452   3.26315   3.26807   3.27124   3.28256
 Alpha virt. eigenvalues --    3.28329   3.28419   3.29692   3.30608   3.30729
 Alpha virt. eigenvalues --    3.31034   3.31165   3.31789   3.31888   3.32399
 Alpha virt. eigenvalues --    3.32724   3.33047   3.33143   3.33332   3.34244
 Alpha virt. eigenvalues --    3.34278   3.34673   3.35329   3.35783   3.36380
 Alpha virt. eigenvalues --    3.36395   3.37415   3.37662   3.38698   3.39423
 Alpha virt. eigenvalues --    3.40412   3.40656   3.41445   3.41770   3.42569
 Alpha virt. eigenvalues --    3.42664   3.42930   3.43613   3.45138   3.45349
 Alpha virt. eigenvalues --    3.45489   3.45608   3.46616   3.46825   3.47870
 Alpha virt. eigenvalues --    3.48272   3.49284   3.49956   3.51895   3.53213
 Alpha virt. eigenvalues --    3.54163   3.54454   3.54603   3.54777   3.56258
 Alpha virt. eigenvalues --    3.57434   3.57575   3.58716   3.59486   3.59768
 Alpha virt. eigenvalues --    3.61689   3.62303   3.63092   3.63678   3.65136
 Alpha virt. eigenvalues --    3.65846   3.66730   3.67827   3.68274   3.68850
 Alpha virt. eigenvalues --    3.69143   3.69534   3.70030   3.70690   3.71159
 Alpha virt. eigenvalues --    3.71451   3.71576   3.72114   3.72512   3.73247
 Alpha virt. eigenvalues --    3.73707   3.74607   3.75401   3.76078   3.77220
 Alpha virt. eigenvalues --    3.77394   3.77668   3.78291   3.78688   3.79402
 Alpha virt. eigenvalues --    3.80221   3.80451   3.80512   3.81305   3.81526
 Alpha virt. eigenvalues --    3.82391   3.83643   3.85610   3.86469   3.86907
 Alpha virt. eigenvalues --    3.88325   3.88626   3.89164   3.89794   3.90970
 Alpha virt. eigenvalues --    3.92754   3.93581   3.93690   3.94423   3.94981
 Alpha virt. eigenvalues --    3.95983   3.96268   3.96792   3.97729   3.97889
 Alpha virt. eigenvalues --    3.98676   3.98816   4.00304   4.00810   4.01783
 Alpha virt. eigenvalues --    4.01936   4.02407   4.02881   4.03094   4.04909
 Alpha virt. eigenvalues --    4.05175   4.05927   4.05998   4.06524   4.07278
 Alpha virt. eigenvalues --    4.07385   4.07995   4.08785   4.09474   4.09556
 Alpha virt. eigenvalues --    4.10571   4.11778   4.12274   4.12684   4.13071
 Alpha virt. eigenvalues --    4.13107   4.14043   4.14277   4.14596   4.15971
 Alpha virt. eigenvalues --    4.16107   4.17105   4.17600   4.17720   4.18060
 Alpha virt. eigenvalues --    4.18934   4.19606   4.19956   4.20423   4.20864
 Alpha virt. eigenvalues --    4.22135   4.22721   4.23642   4.23743   4.24156
 Alpha virt. eigenvalues --    4.24749   4.25658   4.26345   4.26492   4.27051
 Alpha virt. eigenvalues --    4.27390   4.27722   4.28255   4.28330   4.29907
 Alpha virt. eigenvalues --    4.29925   4.31495   4.31994   4.32217   4.32787
 Alpha virt. eigenvalues --    4.33535   4.34785   4.35223   4.35904   4.36460
 Alpha virt. eigenvalues --    4.37151   4.37193   4.37512   4.37766   4.38077
 Alpha virt. eigenvalues --    4.38693   4.39071   4.39876   4.41303   4.42197
 Alpha virt. eigenvalues --    4.42903   4.43223   4.44775   4.45318   4.47105
 Alpha virt. eigenvalues --    4.47555   4.48052   4.48626   4.49124   4.49302
 Alpha virt. eigenvalues --    4.50288   4.50914   4.51627   4.51645   4.52947
 Alpha virt. eigenvalues --    4.52957   4.53559   4.55855   4.55977   4.56288
 Alpha virt. eigenvalues --    4.57709   4.57880   4.58476   4.60756   4.61307
 Alpha virt. eigenvalues --    4.61502   4.61935   4.62538   4.64982   4.65288
 Alpha virt. eigenvalues --    4.66159   4.66181   4.66894   4.68624   4.71020
 Alpha virt. eigenvalues --    4.72669   4.74472   4.76776   4.77248   4.77510
 Alpha virt. eigenvalues --    4.81242   4.84317   4.86653   4.87771   4.87917
 Alpha virt. eigenvalues --    4.88590   4.89233   4.89792   4.90911   4.92009
 Alpha virt. eigenvalues --    4.92135   4.93488   4.94215   4.94784   4.94830
 Alpha virt. eigenvalues --    4.95440   4.97171   4.98805   4.99953   5.00646
 Alpha virt. eigenvalues --    5.00784   5.01623   5.03942   5.05590   5.06563
 Alpha virt. eigenvalues --    5.07098   5.07682   5.08641   5.09470   5.09703
 Alpha virt. eigenvalues --    5.10595   5.11123   5.12205   5.12445   5.13192
 Alpha virt. eigenvalues --    5.13377   5.14797   5.16129   5.17372   5.17797
 Alpha virt. eigenvalues --    5.18546   5.18959   5.19655   5.20574   5.22315
 Alpha virt. eigenvalues --    5.23070   5.23330   5.25930   5.26186   5.26275
 Alpha virt. eigenvalues --    5.26610   5.26847   5.28351   5.29344   5.30641
 Alpha virt. eigenvalues --    5.30786   5.32433   5.32637   5.35051   5.35766
 Alpha virt. eigenvalues --    5.36041   5.36571   5.38247   5.43842   5.45714
 Alpha virt. eigenvalues --    5.46902   5.46919   5.47661   5.48201   5.49537
 Alpha virt. eigenvalues --    5.50047   5.50459   5.50639   5.52388   5.53973
 Alpha virt. eigenvalues --    5.55526   5.57291   5.59351   5.59399   5.60623
 Alpha virt. eigenvalues --    5.61816   5.61919   5.61928   5.63267   5.63606
 Alpha virt. eigenvalues --    5.65601   5.66371   5.66562   5.68401   5.69999
 Alpha virt. eigenvalues --    5.71208   5.72129   5.73438   5.73453   5.74873
 Alpha virt. eigenvalues --    5.75085   5.75813   5.76075   5.76332   5.76846
 Alpha virt. eigenvalues --    5.77861   5.78050   5.78378   5.78524   5.79609
 Alpha virt. eigenvalues --    5.81299   5.88286   5.90175   5.91264   5.91914
 Alpha virt. eigenvalues --    5.92093   5.93601   6.11816   6.12820   6.18526
 Alpha virt. eigenvalues --    6.18672   6.19011   6.21403   6.21512   6.21664
 Alpha virt. eigenvalues --    6.22188   6.22655   6.23369   6.30364   6.30552
 Alpha virt. eigenvalues --    6.32440   6.36045   6.36138   6.36961   6.67733
 Alpha virt. eigenvalues --   12.60851  12.76405  13.01701  13.08075  13.15187
 Alpha virt. eigenvalues --   13.39861  13.52400  13.57269  13.61008  13.66971
 Alpha virt. eigenvalues --   14.00674  14.00843  14.01648
          Condensed to atoms (all electrons):
               1          2          3          4          5          6
     1  P   13.803099   0.293236  -0.040641   0.293216  -0.040609   0.277064
     2  C    0.293236   5.293828   0.235346  -0.026017   0.000738  -0.031010
     3  C   -0.040641   0.235346   5.299842   0.000740  -0.000169   0.002368
     4  C    0.293216  -0.026017   0.000740   5.293644   0.235462  -0.031026
     5  C   -0.040609   0.000738  -0.000169   0.235462   5.299599   0.002355
     6  C    0.277064  -0.031010   0.002368  -0.031026   0.002355   5.336854
     7  C   -0.043832   0.002844  -0.002466   0.002880  -0.002468   0.223091
     8  C    0.295924  -0.032217  -0.000373  -0.032248  -0.000346  -0.027471
     9  H   -0.020786   0.340161  -0.028909   0.000102   0.000039  -0.002204
    10  H   -0.022675   0.343251  -0.027346  -0.000284   0.000030   0.002720
    11  H   -0.000045  -0.039048   0.357829   0.000164   0.000005  -0.001498
    12  H   -0.005931  -0.035087   0.357843  -0.000008   0.000004   0.002274
    13  H   -0.022643  -0.000300   0.000029   0.343270  -0.027349   0.002724
    14  H   -0.020822   0.000120   0.000040   0.340135  -0.028906  -0.002197
    15  H   -0.005944  -0.000009   0.000004  -0.035073   0.357843   0.002285
    16  H   -0.000028   0.000164   0.000005  -0.039042   0.357827  -0.001499
    17  H   -0.021631  -0.004023  -0.000372   0.002538   0.000020   0.340796
    18  H   -0.021618   0.002537   0.000019  -0.004022  -0.000363   0.340761
    19  H   -0.002997   0.001156  -0.001013  -0.000825   0.000166  -0.037267
    20  H   -0.003018  -0.000815   0.000164   0.001164  -0.001005  -0.037131
    21  H   -0.023575  -0.001280  -0.000024  -0.001285  -0.000027   0.003120
    22  H   -0.017697   0.002516   0.000044  -0.002777  -0.000368  -0.001076
    23  H   -0.017690  -0.002795  -0.000373   0.002516   0.000044  -0.001081
    24  C    0.000908  -0.000070   0.000042  -0.000074   0.000043  -0.039364
    25  H    0.000063  -0.000001   0.000008  -0.000015  -0.000002  -0.004429
    26  H    0.000067  -0.000015  -0.000002  -0.000001   0.000008  -0.004381
    27  C    0.000599  -0.040069   0.253806  -0.000130   0.000002  -0.000107
    28  H    0.000175  -0.004064  -0.039254   0.000007   0.000000  -0.000011
    29  H    0.000020  -0.004412  -0.038785   0.000002   0.000000  -0.000017
    30  C    0.000599  -0.000130   0.000002  -0.040063   0.253839  -0.000107
    31  H    0.000022   0.000002   0.000000  -0.004393  -0.038779  -0.000017
    32  H    0.000173   0.000007   0.000000  -0.004077  -0.039257  -0.000010
    33  C   -0.000397  -0.000011  -0.000002  -0.000010  -0.000002   0.003934
    34  H    0.000021  -0.000000  -0.000001  -0.000008   0.000002   0.000025
    35  H    0.000010   0.000000  -0.000000   0.000000  -0.000000  -0.000326
    36  H    0.000021  -0.000008   0.000002  -0.000000  -0.000001   0.000025
    37  C   -0.000461   0.000002  -0.000000   0.004116  -0.050853  -0.000010
    38  H    0.000010  -0.000000   0.000000  -0.000328   0.006868   0.000000
    39  H    0.000019  -0.000000  -0.000000   0.000054  -0.004463  -0.000001
    40  H    0.000023   0.000000   0.000000   0.000015  -0.004797  -0.000010
    41  C   -0.000461   0.004115  -0.050844   0.000002  -0.000000  -0.000010
    42  H    0.000020   0.000054  -0.004470  -0.000000  -0.000000  -0.000001
    43  H    0.000010  -0.000328   0.006868  -0.000000   0.000000   0.000000
    44  H    0.000023   0.000015  -0.004786   0.000000   0.000000  -0.000010
               7          8          9         10         11         12
     1  P   -0.043832   0.295924  -0.020786  -0.022675  -0.000045  -0.005931
     2  C    0.002844  -0.032217   0.340161   0.343251  -0.039048  -0.035087
     3  C   -0.002466  -0.000373  -0.028909  -0.027346   0.357829   0.357843
     4  C    0.002880  -0.032248   0.000102  -0.000284   0.000164  -0.000008
     5  C   -0.002468  -0.000346   0.000039   0.000030   0.000005   0.000004
     6  C    0.223091  -0.027471  -0.002204   0.002720  -0.001498   0.002274
     7  C    5.309769   0.001019  -0.000334  -0.000003   0.000189  -0.001195
     8  C    0.001019   5.144031   0.002565  -0.002374  -0.000508   0.000080
     9  H   -0.000334   0.002565   0.540704  -0.014809   0.005258  -0.002848
    10  H   -0.000003  -0.002374  -0.014809   0.530169  -0.002087   0.005182
    11  H    0.000189  -0.000508   0.005258  -0.002087   0.582069  -0.027148
    12  H   -0.001195   0.000080  -0.002848   0.005182  -0.027148   0.586373
    13  H   -0.000005  -0.002383  -0.000054   0.001118   0.000001  -0.000003
    14  H   -0.000314   0.002567   0.001653  -0.000055  -0.000007   0.000003
    15  H   -0.001197   0.000083   0.000003  -0.000003  -0.000001  -0.000001
    16  H    0.000190  -0.000494  -0.000007   0.000001  -0.000001  -0.000001
    17  H   -0.026290   0.000003   0.000279  -0.000139   0.000476  -0.001940
    18  H   -0.026231   0.000006  -0.000123  -0.000082  -0.000077   0.000180
    19  H    0.357079   0.000077  -0.001318   0.000155  -0.000015   0.000823
    20  H    0.357036   0.000075   0.000318  -0.000067  -0.000000  -0.000028
    21  H   -0.000134   0.357150  -0.000011   0.000865  -0.000134   0.000017
    22  H   -0.000000   0.356429  -0.000089  -0.000054   0.000074  -0.000040
    23  H   -0.000001   0.356450  -0.000058  -0.000013   0.000186   0.000159
    24  C    0.251284  -0.000158   0.000025   0.000008  -0.000005   0.000083
    25  H   -0.038993   0.000003   0.000023  -0.000001   0.000001   0.000050
    26  H   -0.038962   0.000003  -0.000006   0.000000  -0.000000  -0.000005
    27  C    0.000053   0.000005  -0.002109  -0.002196  -0.030021  -0.030997
    28  H    0.000017  -0.000022   0.002600  -0.000056   0.006721  -0.005065
    29  H   -0.000004   0.000024  -0.000092   0.002613  -0.004933   0.006743
    30  C    0.000052   0.000002   0.000002  -0.000000   0.000000   0.000000
    31  H   -0.000004   0.000024   0.000003  -0.000004   0.000000  -0.000000
    32  H    0.000017  -0.000022  -0.000008   0.000002  -0.000000   0.000000
    33  C   -0.050772   0.000002   0.000006  -0.000001   0.000000  -0.000023
    34  H   -0.004629   0.000000   0.000006   0.000000   0.000000   0.000001
    35  H    0.006872  -0.000000  -0.000000   0.000000  -0.000000   0.000000
    36  H   -0.004644   0.000000  -0.000005   0.000000  -0.000000  -0.000013
    37  C   -0.000005  -0.000007   0.000000  -0.000000   0.000000  -0.000000
    38  H   -0.000000   0.000000   0.000000   0.000000   0.000000   0.000000
    39  H   -0.000000  -0.000009  -0.000000   0.000000  -0.000000   0.000000
    40  H    0.000000  -0.000000   0.000000  -0.000000   0.000000  -0.000000
    41  C   -0.000005  -0.000007   0.000075   0.000090  -0.000683  -0.000676
    42  H   -0.000000  -0.000009  -0.000008   0.000018   0.003361  -0.000573
    43  H   -0.000000   0.000000  -0.000012  -0.000015  -0.000097  -0.000112
    44  H    0.000000  -0.000000   0.000023  -0.000003  -0.000479   0.003651
              13         14         15         16         17         18
     1  P   -0.022643  -0.020822  -0.005944  -0.000028  -0.021631  -0.021618
     2  C   -0.000300   0.000120  -0.000009   0.000164  -0.004023   0.002537
     3  C    0.000029   0.000040   0.000004   0.000005  -0.000372   0.000019
     4  C    0.343270   0.340135  -0.035073  -0.039042   0.002538  -0.004022
     5  C   -0.027349  -0.028906   0.357843   0.357827   0.000020  -0.000363
     6  C    0.002724  -0.002197   0.002285  -0.001499   0.340796   0.340761
     7  C   -0.000005  -0.000314  -0.001197   0.000190  -0.026290  -0.026231
     8  C   -0.002383   0.002567   0.000083  -0.000494   0.000003   0.000006
     9  H   -0.000054   0.001653   0.000003  -0.000007   0.000279  -0.000123
    10  H    0.001118  -0.000055  -0.000003   0.000001  -0.000139  -0.000082
    11  H    0.000001  -0.000007  -0.000001  -0.000001   0.000476  -0.000077
    12  H   -0.000003   0.000003  -0.000001  -0.000001  -0.001940   0.000180
    13  H    0.530174  -0.014810   0.005180  -0.002100  -0.000082  -0.000139
    14  H   -0.014810   0.540736  -0.002833   0.005257  -0.000123   0.000278
    15  H    0.005180  -0.002833   0.586412  -0.027145   0.000180  -0.001939
    16  H   -0.002100   0.005257  -0.027145   0.582010  -0.000077   0.000475
    17  H   -0.000082  -0.000123   0.000180  -0.000077   0.530647  -0.016303
    18  H   -0.000139   0.000278  -0.001939   0.000475  -0.016303   0.530518
    19  H   -0.000067   0.000319  -0.000029  -0.000001  -0.002868   0.005306
    20  H    0.000153  -0.001308   0.000829  -0.000014   0.005304  -0.002900
    21  H    0.000870  -0.000011   0.000017  -0.000133  -0.000024  -0.000024
    22  H   -0.000013  -0.000058   0.000159   0.000188  -0.000132   0.001084
    23  H   -0.000054  -0.000089  -0.000040   0.000073   0.001083  -0.000132
    24  C    0.000008   0.000024   0.000084  -0.000005  -0.001721  -0.001696
    25  H    0.000000  -0.000006  -0.000005  -0.000000   0.002739  -0.000040
    26  H   -0.000001   0.000023   0.000048   0.000001  -0.000044   0.002716
    27  C   -0.000000   0.000002   0.000000   0.000000  -0.000002   0.000008
    28  H    0.000002  -0.000008   0.000000  -0.000000   0.000027  -0.000001
    29  H   -0.000004   0.000003  -0.000000   0.000000  -0.000007   0.000000
    30  C   -0.002188  -0.002120  -0.031037  -0.030014   0.000008  -0.000002
    31  H    0.002607  -0.000093   0.006745  -0.004930   0.000000  -0.000007
    32  H   -0.000056   0.002606  -0.005066   0.006720  -0.000001   0.000027
    33  C   -0.000001   0.000006  -0.000023   0.000000   0.000112   0.000110
    34  H    0.000000  -0.000005  -0.000013  -0.000000  -0.000003   0.000025
    35  H    0.000000  -0.000000   0.000000  -0.000000  -0.000014  -0.000014
    36  H    0.000000   0.000006   0.000001   0.000000   0.000024  -0.000003
    37  C    0.000089   0.000076  -0.000682  -0.000684  -0.000001   0.000010
    38  H   -0.000015  -0.000012  -0.000112  -0.000097   0.000000  -0.000001
    39  H    0.000018  -0.000008  -0.000574   0.003357   0.000000   0.000008
    40  H   -0.000003   0.000023   0.003657  -0.000478   0.000000  -0.000003
    41  C   -0.000000   0.000000  -0.000000   0.000000   0.000010  -0.000001
    42  H    0.000000  -0.000000   0.000000  -0.000000   0.000008   0.000000
    43  H    0.000000   0.000000   0.000000   0.000000  -0.000001   0.000000
    44  H   -0.000000   0.000000  -0.000000   0.000000  -0.000003   0.000000
              19         20         21         22         23         24
     1  P   -0.002997  -0.003018  -0.023575  -0.017697  -0.017690   0.000908
     2  C    0.001156  -0.000815  -0.001280   0.002516  -0.002795  -0.000070
     3  C   -0.001013   0.000164  -0.000024   0.000044  -0.000373   0.000042
     4  C   -0.000825   0.001164  -0.001285  -0.002777   0.002516  -0.000074
     5  C    0.000166  -0.001005  -0.000027  -0.000368   0.000044   0.000043
     6  C   -0.037267  -0.037131   0.003120  -0.001076  -0.001081  -0.039364
     7  C    0.357079   0.357036  -0.000134  -0.000000  -0.000001   0.251284
     8  C    0.000077   0.000075   0.357150   0.356429   0.356450  -0.000158
     9  H   -0.001318   0.000318  -0.000011  -0.000089  -0.000058   0.000025
    10  H    0.000155  -0.000067   0.000865  -0.000054  -0.000013   0.000008
    11  H   -0.000015  -0.000000  -0.000134   0.000074   0.000186  -0.000005
    12  H    0.000823  -0.000028   0.000017  -0.000040   0.000159   0.000083
    13  H   -0.000067   0.000153   0.000870  -0.000013  -0.000054   0.000008
    14  H    0.000319  -0.001308  -0.000011  -0.000058  -0.000089   0.000024
    15  H   -0.000029   0.000829   0.000017   0.000159  -0.000040   0.000084
    16  H   -0.000001  -0.000014  -0.000133   0.000188   0.000073  -0.000005
    17  H   -0.002868   0.005304  -0.000024  -0.000132   0.001083  -0.001721
    18  H    0.005306  -0.002900  -0.000024   0.001084  -0.000132  -0.001696
    19  H    0.584924  -0.027588  -0.000000   0.000003  -0.000003  -0.030998
    20  H   -0.027588   0.584611  -0.000000  -0.000003   0.000003  -0.030909
    21  H   -0.000000  -0.000000   0.514714  -0.014250  -0.014256   0.000006
    22  H    0.000003  -0.000003  -0.014250   0.510853  -0.017746  -0.000005
    23  H   -0.000003   0.000003  -0.014256  -0.017746   0.510875  -0.000005
    24  C   -0.030998  -0.030909   0.000006  -0.000005  -0.000005   5.167850
    25  H   -0.005014   0.006805   0.000000   0.000001  -0.000003   0.370129
    26  H    0.006811  -0.005009   0.000000  -0.000003   0.000001   0.370078
    27  C    0.000021   0.000001  -0.000008   0.000009  -0.000021  -0.000004
    28  H    0.000020   0.000001   0.000001   0.000000  -0.000004  -0.000002
    29  H   -0.000003  -0.000000   0.000002  -0.000001   0.000032   0.000000
    30  C    0.000001   0.000022  -0.000008  -0.000021   0.000009  -0.000004
    31  H   -0.000000  -0.000003   0.000002   0.000031  -0.000001   0.000000
    32  H    0.000001   0.000021   0.000001  -0.000004   0.000000  -0.000002
    33  C   -0.000338  -0.000334  -0.000000   0.000000   0.000000   0.286488
    34  H   -0.000509   0.003630   0.000000   0.000000  -0.000000  -0.037261
    35  H   -0.000114  -0.000115   0.000000   0.000000   0.000000  -0.031005
    36  H    0.003637  -0.000506   0.000000  -0.000000   0.000000  -0.037266
    37  C    0.000000  -0.000022  -0.000000   0.000004  -0.000000   0.000001
    38  H    0.000000   0.000000  -0.000000  -0.000001   0.000000   0.000000
    39  H    0.000000   0.000001   0.000001  -0.000008  -0.000000  -0.000000
    40  H   -0.000000  -0.000010  -0.000000   0.000005   0.000000   0.000000
    41  C   -0.000022   0.000000  -0.000000  -0.000000   0.000004   0.000001
    42  H    0.000001   0.000000   0.000001  -0.000000  -0.000008  -0.000000
    43  H    0.000000   0.000000  -0.000000   0.000000  -0.000001   0.000000
    44  H   -0.000010  -0.000000  -0.000000   0.000000   0.000005   0.000000
              25         26         27         28         29         30
     1  P    0.000063   0.000067   0.000599   0.000175   0.000020   0.000599
     2  C   -0.000001  -0.000015  -0.040069  -0.004064  -0.004412  -0.000130
     3  C    0.000008  -0.000002   0.253806  -0.039254  -0.038785   0.000002
     4  C   -0.000015  -0.000001  -0.000130   0.000007   0.000002  -0.040063
     5  C   -0.000002   0.000008   0.000002   0.000000   0.000000   0.253839
     6  C   -0.004429  -0.004381  -0.000107  -0.000011  -0.000017  -0.000107
     7  C   -0.038993  -0.038962   0.000053   0.000017  -0.000004   0.000052
     8  C    0.000003   0.000003   0.000005  -0.000022   0.000024   0.000002
     9  H    0.000023  -0.000006  -0.002109   0.002600  -0.000092   0.000002
    10  H   -0.000001   0.000000  -0.002196  -0.000056   0.002613  -0.000000
    11  H    0.000001  -0.000000  -0.030021   0.006721  -0.004933   0.000000
    12  H    0.000050  -0.000005  -0.030997  -0.005065   0.006743   0.000000
    13  H    0.000000  -0.000001  -0.000000   0.000002  -0.000004  -0.002188
    14  H   -0.000006   0.000023   0.000002  -0.000008   0.000003  -0.002120
    15  H   -0.000005   0.000048   0.000000   0.000000  -0.000000  -0.031037
    16  H   -0.000000   0.000001   0.000000  -0.000000   0.000000  -0.030014
    17  H    0.002739  -0.000044  -0.000002   0.000027  -0.000007   0.000008
    18  H   -0.000040   0.002716   0.000008  -0.000001   0.000000  -0.000002
    19  H   -0.005014   0.006811   0.000021   0.000020  -0.000003   0.000001
    20  H    0.006805  -0.005009   0.000001   0.000001  -0.000000   0.000022
    21  H    0.000000   0.000000  -0.000008   0.000001   0.000002  -0.000008
    22  H    0.000001  -0.000003   0.000009   0.000000  -0.000001  -0.000021
    23  H   -0.000003   0.000001  -0.000021  -0.000004   0.000032   0.000009
    24  C    0.370129   0.370078  -0.000004  -0.000002   0.000000  -0.000004
    25  H    0.592939  -0.029103  -0.000003  -0.000001   0.000000   0.000000
    26  H   -0.029103   0.592832   0.000000   0.000000  -0.000000  -0.000003
    27  C   -0.000003   0.000000   5.163346   0.370134   0.370454  -0.000000
    28  H   -0.000001   0.000000   0.370134   0.594394  -0.029171   0.000000
    29  H    0.000000  -0.000000   0.370454  -0.029171   0.591605   0.000000
    30  C    0.000000  -0.000003  -0.000000   0.000000   0.000000   5.163342
    31  H   -0.000000   0.000000   0.000000   0.000000  -0.000000   0.370436
    32  H    0.000000  -0.000001   0.000000  -0.000000   0.000000   0.370147
    33  C   -0.031893  -0.031878   0.000000   0.000000  -0.000000   0.000000
    34  H    0.006329  -0.004534  -0.000000  -0.000000  -0.000000   0.000000
    35  H   -0.003793  -0.003790   0.000000  -0.000000  -0.000000   0.000000
    36  H   -0.004533   0.006328   0.000000   0.000001   0.000000  -0.000000
    37  C   -0.000000   0.000000   0.000000   0.000000   0.000000   0.288063
    38  H   -0.000000  -0.000000  -0.000000   0.000000   0.000000  -0.031027
    39  H    0.000000  -0.000000  -0.000000  -0.000000   0.000000  -0.037243
    40  H    0.000000   0.000001   0.000000   0.000000  -0.000000  -0.037410
    41  C    0.000000  -0.000000   0.288045  -0.032146  -0.031531   0.000000
    42  H   -0.000000   0.000000  -0.037246   0.006347  -0.004510  -0.000000
    43  H   -0.000000  -0.000000  -0.031027  -0.003794  -0.003801  -0.000000
    44  H    0.000001   0.000000  -0.037414  -0.004553   0.006318   0.000000
              31         32         33         34         35         36
     1  P    0.000022   0.000173  -0.000397   0.000021   0.000010   0.000021
     2  C    0.000002   0.000007  -0.000011  -0.000000   0.000000  -0.000008
     3  C    0.000000   0.000000  -0.000002  -0.000001  -0.000000   0.000002
     4  C   -0.004393  -0.004077  -0.000010  -0.000008   0.000000  -0.000000
     5  C   -0.038779  -0.039257  -0.000002   0.000002  -0.000000  -0.000001
     6  C   -0.000017  -0.000010   0.003934   0.000025  -0.000326   0.000025
     7  C   -0.000004   0.000017  -0.050772  -0.004629   0.006872  -0.004644
     8  C    0.000024  -0.000022   0.000002   0.000000  -0.000000   0.000000
     9  H    0.000003  -0.000008   0.000006   0.000006  -0.000000  -0.000005
    10  H   -0.000004   0.000002  -0.000001   0.000000   0.000000   0.000000
    11  H    0.000000  -0.000000   0.000000   0.000000  -0.000000  -0.000000
    12  H   -0.000000   0.000000  -0.000023   0.000001   0.000000  -0.000013
    13  H    0.002607  -0.000056  -0.000001   0.000000   0.000000   0.000000
    14  H   -0.000093   0.002606   0.000006  -0.000005  -0.000000   0.000006
    15  H    0.006745  -0.005066  -0.000023  -0.000013   0.000000   0.000001
    16  H   -0.004930   0.006720   0.000000  -0.000000  -0.000000   0.000000
    17  H    0.000000  -0.000001   0.000112  -0.000003  -0.000014   0.000024
    18  H   -0.000007   0.000027   0.000110   0.000025  -0.000014  -0.000003
    19  H   -0.000000   0.000001  -0.000338  -0.000509  -0.000114   0.003637
    20  H   -0.000003   0.000021  -0.000334   0.003630  -0.000115  -0.000506
    21  H    0.000002   0.000001  -0.000000   0.000000   0.000000   0.000000
    22  H    0.000031  -0.000004   0.000000   0.000000   0.000000  -0.000000
    23  H   -0.000001   0.000000   0.000000  -0.000000   0.000000   0.000000
    24  C    0.000000  -0.000002   0.286488  -0.037261  -0.031005  -0.037266
    25  H   -0.000000   0.000000  -0.031893   0.006329  -0.003793  -0.004533
    26  H    0.000000  -0.000001  -0.031878  -0.004534  -0.003790   0.006328
    27  C    0.000000   0.000000   0.000000  -0.000000   0.000000   0.000000
    28  H    0.000000  -0.000000   0.000000  -0.000000  -0.000000   0.000001
    29  H   -0.000000   0.000000  -0.000000  -0.000000  -0.000000   0.000000
    30  C    0.370436   0.370147   0.000000   0.000000   0.000000  -0.000000
    31  H    0.591569  -0.029166  -0.000000   0.000000  -0.000000  -0.000000
    32  H   -0.029166   0.594404   0.000000   0.000001  -0.000000  -0.000000
    33  C   -0.000000   0.000000   5.078558   0.373979   0.372330   0.373979
    34  H    0.000000   0.000001   0.373979   0.587919  -0.022937  -0.029108
    35  H   -0.000000  -0.000000   0.372330  -0.022937   0.552420  -0.022948
    36  H   -0.000000  -0.000000   0.373979  -0.029108  -0.022948   0.587993
    37  C   -0.031524  -0.032146  -0.000000  -0.000000   0.000000  -0.000000
    38  H   -0.003801  -0.003793   0.000000  -0.000000   0.000000  -0.000000
    39  H   -0.004508   0.006346  -0.000000   0.000000  -0.000000  -0.000000
    40  H    0.006317  -0.004553  -0.000000   0.000000  -0.000000   0.000000
    41  C    0.000000   0.000000  -0.000000  -0.000000   0.000000  -0.000000
    42  H    0.000000  -0.000000  -0.000000  -0.000000  -0.000000   0.000000
    43  H    0.000000   0.000000   0.000000  -0.000000   0.000000  -0.000000
    44  H   -0.000000   0.000000  -0.000000   0.000000  -0.000000   0.000000
              37         38         39         40         41         42
     1  P   -0.000461   0.000010   0.000019   0.000023  -0.000461   0.000020
     2  C    0.000002  -0.000000  -0.000000   0.000000   0.004115   0.000054
     3  C   -0.000000   0.000000  -0.000000   0.000000  -0.050844  -0.004470
     4  C    0.004116  -0.000328   0.000054   0.000015   0.000002  -0.000000
     5  C   -0.050853   0.006868  -0.004463  -0.004797  -0.000000  -0.000000
     6  C   -0.000010   0.000000  -0.000001  -0.000010  -0.000010  -0.000001
     7  C   -0.000005  -0.000000  -0.000000   0.000000  -0.000005  -0.000000
     8  C   -0.000007   0.000000  -0.000009  -0.000000  -0.000007  -0.000009
     9  H    0.000000   0.000000  -0.000000   0.000000   0.000075  -0.000008
    10  H   -0.000000   0.000000   0.000000  -0.000000   0.000090   0.000018
    11  H    0.000000   0.000000  -0.000000   0.000000  -0.000683   0.003361
    12  H   -0.000000   0.000000   0.000000  -0.000000  -0.000676  -0.000573
    13  H    0.000089  -0.000015   0.000018  -0.000003  -0.000000   0.000000
    14  H    0.000076  -0.000012  -0.000008   0.000023   0.000000  -0.000000
    15  H   -0.000682  -0.000112  -0.000574   0.003657  -0.000000   0.000000
    16  H   -0.000684  -0.000097   0.003357  -0.000478   0.000000  -0.000000
    17  H   -0.000001   0.000000   0.000000   0.000000   0.000010   0.000008
    18  H    0.000010  -0.000001   0.000008  -0.000003  -0.000001   0.000000
    19  H    0.000000   0.000000   0.000000  -0.000000  -0.000022   0.000001
    20  H   -0.000022   0.000000   0.000001  -0.000010   0.000000   0.000000
    21  H   -0.000000  -0.000000   0.000001  -0.000000  -0.000000   0.000001
    22  H    0.000004  -0.000001  -0.000008   0.000005  -0.000000  -0.000000
    23  H   -0.000000   0.000000  -0.000000   0.000000   0.000004  -0.000008
    24  C    0.000001   0.000000  -0.000000   0.000000   0.000001  -0.000000
    25  H   -0.000000  -0.000000   0.000000   0.000000   0.000000  -0.000000
    26  H    0.000000  -0.000000  -0.000000   0.000001  -0.000000   0.000000
    27  C    0.000000  -0.000000  -0.000000   0.000000   0.288045  -0.037246
    28  H    0.000000   0.000000  -0.000000   0.000000  -0.032146   0.006347
    29  H    0.000000   0.000000   0.000000  -0.000000  -0.031531  -0.004510
    30  C    0.288063  -0.031027  -0.037243  -0.037410   0.000000  -0.000000
    31  H   -0.031524  -0.003801  -0.004508   0.006317   0.000000   0.000000
    32  H   -0.032146  -0.003793   0.006346  -0.004553   0.000000  -0.000000
    33  C   -0.000000   0.000000  -0.000000  -0.000000  -0.000000  -0.000000
    34  H   -0.000000  -0.000000   0.000000   0.000000  -0.000000  -0.000000
    35  H    0.000000   0.000000  -0.000000  -0.000000   0.000000  -0.000000
    36  H   -0.000000  -0.000000  -0.000000   0.000000  -0.000000   0.000000
    37  C    5.076423   0.372481   0.374167   0.374182  -0.000000  -0.000000
    38  H    0.372481   0.552488  -0.022795  -0.023090   0.000000   0.000000
    39  H    0.374167  -0.022795   0.587159  -0.029107  -0.000000  -0.000000
    40  H    0.374182  -0.023090  -0.029107   0.588827   0.000000   0.000000
    41  C   -0.000000   0.000000  -0.000000   0.000000   5.076425   0.374171
    42  H   -0.000000   0.000000  -0.000000   0.000000   0.374171   0.587172
    43  H    0.000000  -0.000000   0.000000  -0.000000   0.372485  -0.022798
    44  H    0.000000  -0.000000   0.000000   0.000000   0.374178  -0.029104
              43         44
     1  P    0.000010   0.000023
     2  C   -0.000328   0.000015
     3  C    0.006868  -0.004786
     4  C   -0.000000   0.000000
     5  C    0.000000   0.000000
     6  C    0.000000  -0.000010
     7  C   -0.000000   0.000000
     8  C    0.000000  -0.000000
     9  H   -0.000012   0.000023
    10  H   -0.000015  -0.000003
    11  H   -0.000097  -0.000479
    12  H   -0.000112   0.003651
    13  H    0.000000  -0.000000
    14  H    0.000000   0.000000
    15  H    0.000000  -0.000000
    16  H    0.000000   0.000000
    17  H   -0.000001  -0.000003
    18  H    0.000000   0.000000
    19  H    0.000000  -0.000010
    20  H    0.000000  -0.000000
    21  H   -0.000000  -0.000000
    22  H    0.000000   0.000000
    23  H   -0.000001   0.000005
    24  C    0.000000   0.000000
    25  H   -0.000000   0.000001
    26  H   -0.000000   0.000000
    27  C   -0.031027  -0.037414
    28  H   -0.003794  -0.004553
    29  H   -0.003801   0.006318
    30  C   -0.000000   0.000000
    31  H    0.000000  -0.000000
    32  H    0.000000   0.000000
    33  C    0.000000  -0.000000
    34  H   -0.000000   0.000000
    35  H    0.000000  -0.000000
    36  H   -0.000000   0.000000
    37  C    0.000000   0.000000
    38  H   -0.000000  -0.000000
    39  H    0.000000   0.000000
    40  H   -0.000000   0.000000
    41  C    0.372485   0.374178
    42  H   -0.022798  -0.029104
    43  H    0.552483  -0.023084
    44  H   -0.023084   0.588806
 Mulliken charges:
               1
     1  P    0.368178
     2  C   -0.298383
     3  C   -0.275171
     4  C   -0.298321
     5  C   -0.275130
     6  C   -0.318129
     7  C   -0.269901
     8  C   -0.417872
     9  H    0.179947
    10  H    0.186044
    11  H    0.150452
    12  H    0.148226
    13  H    0.186028
    14  H    0.179910
    15  H    0.148195
    16  H    0.150480
    17  H    0.191546
    18  H    0.191653
    19  H    0.150500
    20  H    0.150647
    21  H    0.178419
    22  H    0.182948
    23  H    0.182932
    24  C   -0.236509
    25  H    0.138740
    26  H    0.138818
    27  C   -0.235131
    28  H    0.137703
    29  H    0.139457
    30  C   -0.235145
    31  H    0.139476
    32  H    0.137689
    33  C   -0.373821
    34  H    0.127068
    35  H    0.153425
    36  H    0.127016
    37  C   -0.373218
    38  H    0.153223
    39  H    0.127585
    40  H    0.126412
    41  C   -0.373215
    42  H    0.127576
    43  H    0.153224
    44  H    0.126427
 Sum of Mulliken charges =   1.00000
 Mulliken charges with hydrogens summed into heavy atoms:
               1
     1  P    0.368178
     2  C    0.067608
     3  C    0.023507
     4  C    0.067617
     5  C    0.023545
     6  C    0.065070
     7  C    0.031246
     8  C    0.126428
    24  C    0.041049
    27  C    0.042029
    30  C    0.042020
    33  C    0.033688
    37  C    0.034002
    41  C    0.034012
 Electronic spatial extent (au):  <R**2>=          10009.6589
 Charge=              1.0000 electrons
 Dipole moment (field-independent basis, Debye):
    X=             -3.3303    Y=              4.2912    Z=             11.8588  Tot=             13.0437
 Quadrupole moment (field-independent basis, Debye-Ang):
   XX=            -74.4944   YY=            -87.1920   ZZ=            -51.7898
   XY=             -1.1796   XZ=             -4.3112   YZ=             14.6891
 Traceless Quadrupole moment (field-independent basis, Debye-Ang):
   XX=             -3.3357   YY=            -16.0332   ZZ=             19.3689
   XY=             -1.1796   XZ=             -4.3112   YZ=             14.6891
 Octapole moment (field-independent basis, Debye-Ang**2):
  XXX=            254.0593  YYY=           -231.5584  ZZZ=           -655.8882  XYY=             85.7103
  XXY=            -72.9789  XXZ=           -221.5535  XZZ=             76.8227  YZZ=            -19.2702
  YYZ=           -258.5590  XYZ=            -18.4678
 Hexadecapole moment (field-independent basis, Debye-Ang**3):
 XXXX=          -4172.2935 YYYY=          -1279.0064 ZZZZ=          -6783.1304 XXXY=             57.5142
 XXXZ=            281.3272 YYYX=             24.9982 YYYZ=          -1120.9979 ZZZX=            172.8750
 ZZZY=           -856.9795 XXYY=           -908.8765 XXZZ=          -1698.6212 YYZZ=          -1389.1330
 XXYZ=           -283.9210 YYXZ=             44.4199 ZZXY=            -93.4307
 N-N= 1.089291191778D+03 E-N=-4.157159383696D+03  KE= 8.515219189763D+02
 Breneman (CHELPG) radii used.
 Generate Potential Derived Charges using the Breneman model, NDens= 1.
 Grid spacing= 0.300 Box extension= 2.800
 NStep X,Y,Z=   54     37     47   Total possible points=       93906
 Number of Points to Fit=   23286

 **********************************************************************

          Electrostatic Properties Using The MP2 Density

 **********************************************************************

       Atomic Center    1 is at  -0.511848  0.907128  2.195889
       Atomic Center    2 is at  -1.574914 -0.438908  1.588412
       Atomic Center    3 is at  -2.809740  0.029115  0.803874
       Atomic Center    4 is at   0.820771  0.192209  3.207762
       Atomic Center    5 is at   1.736225  1.226741  3.879534
       Atomic Center    6 is at  -1.488838  2.079391  3.183312
       Atomic Center    7 is at  -2.155751  1.448429  4.414192
       Atomic Center    8 is at   0.207357  1.790872  0.786966
       Atomic Center    9 is at  -1.870927 -1.027456  2.462131
       Atomic Center   10 is at  -0.941935 -1.086229  0.972435
       Atomic Center   11 is at  -2.503328  0.639710 -0.051961
       Atomic Center   12 is at  -3.434114  0.665865  1.438999
       Atomic Center   13 is at   1.394286 -0.469641  2.550374
       Atomic Center   14 is at   0.341945 -0.445999  3.956601
       Atomic Center   15 is at   1.146743  1.872490  4.538461
       Atomic Center   16 is at   2.189509  1.876238  3.123345
       Atomic Center   17 is at  -2.235948  2.516055  2.513816
       Atomic Center   18 is at  -0.815597  2.890950  3.474998
       Atomic Center   19 is at  -2.814505  0.630518  4.103690
       Atomic Center   20 is at  -1.394554  1.008545  5.067221
       Atomic Center   21 is at   0.799269  1.102471  0.181259
       Atomic Center   22 is at   0.849204  2.597165  1.143873
       Atomic Center   23 is at  -0.586706  2.217012  0.172668
       Atomic Center   24 is at  -2.969054  2.475641  5.209731
       Atomic Center   25 is at  -3.727312  2.917598  4.554044
       Atomic Center   26 is at  -2.309532  3.294898  5.516383
       Atomic Center   27 is at  -3.645517 -1.154417  0.302683
       Atomic Center   28 is at  -3.945311 -1.769092  1.158612
       Atomic Center   29 is at  -3.020584 -1.791485 -0.332602
       Atomic Center   30 is at   2.846973  0.556093  4.696186
       Atomic Center   31 is at   3.436940 -0.089916  4.036964
       Atomic Center   32 is at   2.393057 -0.099493  5.447501
       Atomic Center   33 is at  -3.639819  1.861661  6.438618
       Atomic Center   34 is at  -2.900075  1.441276  7.125732
       Atomic Center   35 is at  -4.211737  2.612659  6.986549
       Atomic Center   36 is at  -4.328883  1.060862  6.155776
       Atomic Center   37 is at   3.761133  1.573117  5.379746
       Atomic Center   38 is at   4.541934  1.070968  5.953781
       Atomic Center   39 is at   4.251890  2.220428  4.647528
       Atomic Center   40 is at   3.200085  2.210337  6.069167
       Atomic Center   41 is at  -4.884361 -0.704973 -0.472234
       Atomic Center   42 is at  -4.609957 -0.115111 -1.351298
       Atomic Center   43 is at  -5.461136 -1.564952 -0.817325
       Atomic Center   44 is at  -5.541959 -0.092885  0.151478
   23286 points will be used for fitting atomic charges
 Fitting point charges to electrostatic potential
 The dipole moment will be constrained to the correct value
 Charges from ESP fit, RMS=   0.00177 RRMS=   0.01751:
 ESP charges:
               1
     1  P    0.627280
     2  C   -0.310971
     3  C    0.064650
     4  C   -0.306120
     5  C    0.069037
     6  C   -0.224641
     7  C    0.050570
     8  C   -0.401900
     9  H    0.098523
    10  H    0.117251
    11  H    0.011657
    12  H    0.026239
    13  H    0.115458
    14  H    0.097090
    15  H    0.026817
    16  H    0.009623
    17  H    0.076798
    18  H    0.075906
    19  H    0.022208
    20  H    0.022316
    21  H    0.163750
    22  H    0.149553
    23  H    0.148933
    24  C    0.106303
    25  H    0.009710
    26  H    0.008964
    27  C    0.121689
    28  H    0.005658
    29  H    0.002948
    30  C    0.109659
    31  H    0.004580
    32  H    0.007153
    33  C   -0.270598
    34  H    0.069211
    35  H    0.095552
    36  H    0.069401
    37  C   -0.252897
    38  H    0.091522
    39  H    0.067369
    40  H    0.061769
    41  C   -0.272375
    42  H    0.071603
    43  H    0.095752
    44  H    0.067001
 Sum of ESP charges =   1.00000
 ESP charges with hydrogens summed into heavy atoms:
               1
     1  P    0.627280
     2  C   -0.095197
     3  C    0.102545
     4  C   -0.093572
     5  C    0.105477
     6  C   -0.071937
     7  C    0.095094
     8  C    0.060336
    24  C    0.124978
    27  C    0.130296
    30  C    0.121391
    33  C   -0.036434
    37  C   -0.032237
    41  C   -0.038019
 Charge=   1.00000 Dipole=    -3.3303     4.2912    11.8588 Tot=    13.0437
 -----------------------------------------------------------------

              Electrostatic Properties (Atomic Units)

 -----------------------------------------------------------------
    Center     Electric         -------- Electric Field --------
               Potential          X             Y             Z
 -----------------------------------------------------------------
    1 Atom    -53.919117
    2 Atom    -14.582660
    3 Atom    -14.607993
    4 Atom    -14.582646
    5 Atom    -14.608000
    6 Atom    -14.583005
    7 Atom    -14.607358
    8 Atom    -14.585548
    9 Atom     -0.935637
   10 Atom     -0.934569
   11 Atom     -0.977946
   12 Atom     -0.978307
   13 Atom     -0.934555
   14 Atom     -0.935636
   15 Atom     -0.978324
   16 Atom     -0.977970
   17 Atom     -0.935177
   18 Atom     -0.935186
   19 Atom     -0.977275
   20 Atom     -0.977285
   21 Atom     -0.924391
   22 Atom     -0.924683
   23 Atom     -0.924678
   24 Atom    -14.635208
   25 Atom     -1.005707
   26 Atom     -1.005714
   27 Atom    -14.636015
   28 Atom     -1.006491
   29 Atom     -1.006685
   30 Atom    -14.636026
   31 Atom     -1.006697
   32 Atom     -1.006500
   33 Atom    -14.662945
   34 Atom     -1.017920
   35 Atom     -1.019191
   36 Atom     -1.017914
   37 Atom    -14.663827
   38 Atom     -1.020066
   39 Atom     -1.018894
   40 Atom     -1.018765
   41 Atom    -14.663823
   42 Atom     -1.018890
   43 Atom     -1.020059
   44 Atom     -1.018763
 -----------------------------------------------------------------
 1\1\GINC-CX3-7-9\SP\RMP2-Full\CC-pVTZ\C13H30P1\FDP18\26-Mar-2021\0\\# 
 RMP2=(semidirect,full)/cc-pVTZ int=ultrafine symmetry=none scf=conver=
 11 Density=current pop=(minimal,CHELPG,Dipole)\\Title Card Required\\1
 ,1\P,0,-0.511847704,0.9071277118,2.1958887894\C,0,-1.5749139156,-0.438
 9081543,1.5884121686\C,0,-2.8097401907,0.0291154612,0.8038736858\C,0,0
 .8207712832,0.1922092402,3.2077616898\C,0,1.7362252724,1.2267410647,3.
 8795341575\C,0,-1.4888376324,2.079390517,3.1833124313\C,0,-2.155750596
 9,1.4484293542,4.4141924947\C,0,0.2073573792,1.7908720226,0.7869659855
 \H,0,-1.8709269876,-1.0274559634,2.4621310609\H,0,-0.9419352434,-1.086
 2289653,0.9724353803\H,0,-2.5033279618,0.6397097851,-0.0519612045\H,0,
 -3.4341139542,0.6658653366,1.4389985376\H,0,1.3942858553,-0.4696413195
 ,2.5503737876\H,0,0.3419449697,-0.4459986304,3.9566014541\H,0,1.146743
 1308,1.8724897596,4.5384610327\H,0,2.1895087192,1.8762383905,3.1233452
 312\H,0,-2.2359483081,2.5160546692,2.5138156173\H,0,-0.8155974221,2.89
 09504014,3.4749976417\H,0,-2.8145046315,0.6305176551,4.1036900809\H,0,
 -1.3945543564,1.0085445895,5.0672206338\H,0,0.7992693361,1.1024706436,
 0.1812588528\H,0,0.8492042386,2.59716507,1.143873018\H,0,-0.5867063529
 ,2.2170117075,0.1726678371\C,0,-2.9690540551,2.4756413849,5.2097308467
 \H,0,-3.7273116784,2.9175975382,4.5540437035\H,0,-2.3095317787,3.29489
 80472,5.5163826565\C,0,-3.6455169179,-1.1544173937,0.302683354\H,0,-3.
 9453106246,-1.7690920741,1.1586124418\H,0,-3.020584,-1.7914845705,-0.3
 326023941\C,0,2.8469732084,0.5560928871,4.6961862787\H,0,3.436940012,-
 0.0899162605,4.0369640118\H,0,2.3930568913,-0.0994931308,5.447500929\C
 ,0,-3.639819464,1.8616609354,6.4386180682\H,0,-2.900074717,1.441275674
 3,7.1257315967\H,0,-4.2117372483,2.6126586584,6.9865487392\H,0,-4.3288
 831596,1.0608623456,6.1557759599\C,0,3.7611333368,1.5731172499,5.37974
 56632\H,0,4.5419343044,1.0709677923,5.9537809553\H,0,4.2518895578,2.22
 04281324,4.6475282661\H,0,3.2000853241,2.2103368468,6.0691672246\C,0,-
 4.8843610734,-0.704973082,-0.4722343138\H,0,-4.609957105,-0.1151107513
 ,-1.3512977981\H,0,-5.4611357411,-1.5649520537,-0.8173245931\H,0,-5.54
 19592881,-0.0928846932,0.1514784497\\Version=ES64L-G09RevE.01\HF=-850.
 5333177\MP2=-853.2298141\RMSD=8.289e-12\Dipole=0.5727159,0.0672508,-0.
 8714429\Quadrupole=-2.479999,-11.9203226,14.4003216,-0.8770109,-3.2052
 351,10.9210067\PG=Unknown\\@


 ... THIS SEEMS PLAINLY ABSURD; BUT WHOEVER WISHES TO BECOME A 
 PHILOSOPHER MUST LEARN NOT TO BE FRIGHTENED BY ABSURDITIES.

                          -- BERTRAND RUSSELL
 Job cpu time:       3 days  6 hours 24 minutes 10.6 seconds.
 File lengths (MBytes):  RWF= 509053 Int=      0 D2E=      0 Chk=     56 Scr=      2
 Normal termination of Gaussian 09 at Fri Mar 26 19:55:02 2021.
