 Entering Gaussian System, Link 0=g09
 Initial command:
 /apps/gaussian/g09_e01/g09/l1.exe "/rds/general/user/fdp18/home/gaussian/padua/forcefield_phosphonium/Gau-6126.inp" -scrdir="/rds/general/user/fdp18/home/gaussian/padua/forcefield_phosphonium/"
 Entering Link 1 = /apps/gaussian/g09_e01/g09/l1.exe PID=      6127.
  
 Copyright (c) 1988,1990,1992,1993,1995,1998,2003,2009,2015,
            Gaussian, Inc.  All Rights Reserved.
  
 This is part of the Gaussian(R) 09 program.  It is based on
 the Gaussian(R) 03 system (copyright 2003, Gaussian, Inc.),
 the Gaussian(R) 98 system (copyright 1998, Gaussian, Inc.),
 the Gaussian(R) 94 system (copyright 1995, Gaussian, Inc.),
 the Gaussian 92(TM) system (copyright 1992, Gaussian, Inc.),
 the Gaussian 90(TM) system (copyright 1990, Gaussian, Inc.),
 the Gaussian 88(TM) system (copyright 1988, Gaussian, Inc.),
 the Gaussian 86(TM) system (copyright 1986, Carnegie Mellon
 University), and the Gaussian 82(TM) system (copyright 1983,
 Carnegie Mellon University). Gaussian is a federally registered
 trademark of Gaussian, Inc.
  
 This software contains proprietary and confidential information,
 including trade secrets, belonging to Gaussian, Inc.
  
 This software is provided under written license and may be
 used, copied, transmitted, or stored only in accord with that
 written license.
  
 The following legend is applicable only to US Government
 contracts under FAR:
  
                    RESTRICTED RIGHTS LEGEND
  
 Use, reproduction and disclosure by the US Government is
 subject to restrictions as set forth in subparagraphs (a)
 and (c) of the Commercial Computer Software - Restricted
 Rights clause in FAR 52.227-19.
  
 Gaussian, Inc.
 340 Quinnipiac St., Bldg. 40, Wallingford CT 06492
  
  
 ---------------------------------------------------------------
 Warning -- This program may not be used in any manner that
 competes with the business of Gaussian, Inc. or will provide
 assistance to any competitor of Gaussian, Inc.  The licensee
 of this program is prohibited from giving any competitor of
 Gaussian, Inc. access to this program.  By using this program,
 the user acknowledges that Gaussian, Inc. is engaged in the
 business of creating and licensing software in the field of
 computational chemistry and represents and warrants to the
 licensee that it is not a competitor of Gaussian, Inc. and that
 it will not use this program in any manner prohibited above.
 ---------------------------------------------------------------
  

 Cite this work as:
 Gaussian 09, Revision E.01,
 M. J. Frisch, G. W. Trucks, H. B. Schlegel, G. E. Scuseria, 
 M. A. Robb, J. R. Cheeseman, G. Scalmani, V. Barone, B. Mennucci, 
 G. A. Petersson, H. Nakatsuji, M. Caricato, X. Li, H. P. Hratchian, 
 A. F. Izmaylov, J. Bloino, G. Zheng, J. L. Sonnenberg, M. Hada, 
 M. Ehara, K. Toyota, R. Fukuda, J. Hasegawa, M. Ishida, T. Nakajima, 
 Y. Honda, O. Kitao, H. Nakai, T. Vreven, J. A. Montgomery, Jr., 
 J. E. Peralta, F. Ogliaro, M. Bearpark, J. J. Heyd, E. Brothers, 
 K. N. Kudin, V. N. Staroverov, T. Keith, R. Kobayashi, J. Normand, 
 K. Raghavachari, A. Rendell, J. C. Burant, S. S. Iyengar, J. Tomasi, 
 M. Cossi, N. Rega, J. M. Millam, M. Klene, J. E. Knox, J. B. Cross, 
 V. Bakken, C. Adamo, J. Jaramillo, R. Gomperts, R. E. Stratmann, 
 O. Yazyev, A. J. Austin, R. Cammi, C. Pomelli, J. W. Ochterski, 
 R. L. Martin, K. Morokuma, V. G. Zakrzewski, G. A. Voth, 
 P. Salvador, J. J. Dannenberg, S. Dapprich, A. D. Daniels, 
 O. Farkas, J. B. Foresman, J. V. Ortiz, J. Cioslowski, 
 and D. J. Fox, Gaussian, Inc., Wallingford CT, 2013.
 
 ******************************************
 Gaussian 09:  ES64L-G09RevE.01 30-Nov-2015
                30-Nov-2020 
 ******************************************
 %nprocshared=48
 Will use up to   48 processors via shared memory.
 %mem=100GB
 %chk=P5551.chk
 ----------------------------------------------------------------------
 # freq rb3lyp/6-311+g(d,p) empiricaldispersion=gd3bj int=ultrafine scf
 =conver=10 symmetry=none pop=(minimal,CHELPG,Dipole) guess=read
 ----------------------------------------------------------------------
 1/10=4,30=1,38=1/1,3;
 2/12=2,15=3,17=6,18=5,40=1/2;
 3/5=4,6=6,7=111,11=2,16=1,25=1,30=1,71=2,74=-5,75=-5,116=1,124=41,140=1/1,2,3;
 4/5=1/1;
 5/5=2,6=10,38=6,98=1/2;
 8/6=4,10=90,11=11/1;
 11/6=1,8=1,9=11,15=111,16=1,31=1/1,2,10;
 10/6=1,31=1/2;
 6/7=2,8=2,9=2,10=2,15=24,18=1,20=3,28=1/1,2;
 7/8=1,10=1,25=1,30=1/1,2,3,16;
 1/10=4,30=1/3;
 99//99;
 -------------------
 Title Card Required
 -------------------
 Symbolic Z-matrix:
 Charge =  1 Multiplicity = 1
 P                    -0.51144   0.90629   2.19336 
 C                    -1.58405  -0.4314    1.5842 
 C                    -2.81987   0.04752   0.80777 
 C                    -4.90862  -0.67832  -0.4641 
 C                     0.81908   0.18207   3.2014 
 C                     1.73781   1.21103   3.87735 
 C                     3.76919   1.53855   5.38465 
 C                    -1.47982   2.08173   3.18531 
 C                    -2.14811   1.4505    4.41537 
 C                    -3.63276   1.87424   6.44599 
 C                    -4.43797   2.90346   7.2405 
 C                     4.87389   0.86055   6.19633 
 C                    -5.7482   -1.8541   -0.96571 
 C                     0.21048   1.78897   0.785 
 H                    -1.87939  -1.02252   2.45636 
 H                    -0.95738  -1.0791    0.96223 
 H                    -2.51344   0.66181  -0.04533 
 H                    -3.43742   0.68377   1.44987 
 H                    -4.60363  -0.05538  -1.31288 
 H                    -5.52009  -0.0391    0.18334 
 H                     1.3902   -0.47887   2.54105 
 H                     0.33833  -0.45759   3.9477 
 H                     1.14973   1.85528   4.53883 
 H                     2.19203   1.86242   3.12346 
 H                     3.17245   2.18241   6.04119 
 H                     4.21722   2.19708   4.63157 
 H                    -2.22565   2.52439   2.51839 
 H                    -0.80156   2.88856   3.47834 
 H                    -2.81059   0.6365    4.10283 
 H                    -1.38766   1.0053    5.06552 
 H                    -4.29063   1.05611   6.13053 
 H                    -2.87036   1.4245    7.09259 
 H                    -3.79847   3.7162    7.59644 
 H                    -5.22872   3.34518   6.62749 
 H                    -4.91      2.44609   8.11238 
 H                     4.45413   0.22118   6.97814 
 H                     5.51624   1.59896   6.68037 
 H                     5.50641   0.2365    5.55867 
 H                    -5.17127  -2.49155  -1.64169 
 H                    -6.09413  -2.47562  -0.13487 
 H                    -6.62887  -1.50545  -1.50887 
 H                     0.79761   1.09855   0.17697 
 H                     0.85729   2.59097   1.1426 
 H                    -0.58232   2.22063   0.17292 
 C                    -2.95497   2.47905   5.21375 
 H                    -3.71407   2.92787   4.56216 
 H                    -2.29291   3.29598   5.52442 
 C                    -3.663    -1.12829   0.30384 
 H                    -3.96372  -1.7491    1.15621 
 H                    -3.04668  -1.76608  -0.34067 
 C                     2.846     0.53386   4.69018 
 H                     3.43778  -0.11068   4.0296 
 H                     2.39292  -0.12521   5.44031 
 

 GradGradGradGradGradGradGradGradGradGradGradGradGradGradGradGradGradGrad
 Berny optimization.
 Initialization pass.
 Trust Radius=3.00D-01 FncErr=1.00D-07 GrdErr=1.00D-07
 Number of steps in this run=      2 maximum allowed number of steps=      2.
 GradGradGradGradGradGradGradGradGradGradGradGradGradGradGradGradGradGrad

 Symmetry turned off by external request.
 Stoichiometry    C16H36P
                          Input orientation:                          
 ---------------------------------------------------------------------
 Center     Atomic      Atomic             Coordinates (Angstroms)
 Number     Number       Type             X           Y           Z
 ---------------------------------------------------------------------
      1         15           0       -0.511436    0.906292    2.193362
      2          6           0       -1.584046   -0.431401    1.584199
      3          6           0       -2.819871    0.047517    0.807770
      4          6           0       -4.908621   -0.678324   -0.464099
      5          6           0        0.819080    0.182074    3.201396
      6          6           0        1.737812    1.211029    3.877349
      7          6           0        3.769186    1.538551    5.384652
      8          6           0       -1.479818    2.081725    3.185308
      9          6           0       -2.148114    1.450503    4.415374
     10          6           0       -3.632757    1.874245    6.445987
     11          6           0       -4.437966    2.903455    7.240503
     12          6           0        4.873891    0.860551    6.196327
     13          6           0       -5.748202   -1.854102   -0.965708
     14          6           0        0.210479    1.788966    0.785005
     15          1           0       -1.879394   -1.022521    2.456356
     16          1           0       -0.957379   -1.079097    0.962226
     17          1           0       -2.513440    0.661810   -0.045325
     18          1           0       -3.437424    0.683770    1.449867
     19          1           0       -4.603635   -0.055376   -1.312880
     20          1           0       -5.520086   -0.039105    0.183338
     21          1           0        1.390200   -0.478866    2.541053
     22          1           0        0.338333   -0.457593    3.947704
     23          1           0        1.149731    1.855275    4.538831
     24          1           0        2.192035    1.862421    3.123455
     25          1           0        3.172454    2.182415    6.041188
     26          1           0        4.217217    2.197080    4.631572
     27          1           0       -2.225654    2.524393    2.518393
     28          1           0       -0.801558    2.888560    3.478337
     29          1           0       -2.810594    0.636498    4.102826
     30          1           0       -1.387662    1.005301    5.065520
     31          1           0       -4.290629    1.056115    6.130533
     32          1           0       -2.870355    1.424500    7.092591
     33          1           0       -3.798475    3.716197    7.596437
     34          1           0       -5.228723    3.345177    6.627485
     35          1           0       -4.909999    2.446093    8.112378
     36          1           0        4.454132    0.221185    6.978142
     37          1           0        5.516241    1.598962    6.680369
     38          1           0        5.506410    0.236502    5.558668
     39          1           0       -5.171270   -2.491551   -1.641688
     40          1           0       -6.094131   -2.475622   -0.134875
     41          1           0       -6.628867   -1.505453   -1.508873
     42          1           0        0.797608    1.098547    0.176969
     43          1           0        0.857290    2.590967    1.142603
     44          1           0       -0.582315    2.220626    0.172925
     45          6           0       -2.954975    2.479050    5.213746
     46          1           0       -3.714073    2.927873    4.562158
     47          1           0       -2.292909    3.295979    5.524421
     48          6           0       -3.663005   -1.128294    0.303843
     49          1           0       -3.963720   -1.749101    1.156211
     50          1           0       -3.046677   -1.766082   -0.340666
     51          6           0        2.846002    0.533864    4.690176
     52          1           0        3.437783   -0.110684    4.029604
     53          1           0        2.392916   -0.125209    5.440311
 ---------------------------------------------------------------------
 Rotational constants (GHZ):      0.3535394      0.1666490      0.1227502
 Standard basis: 6-311+G(d,p) (5D, 7F)
   598 basis functions,   914 primitive gaussians,   615 cartesian basis functions
    73 alpha electrons       73 beta electrons
       nuclear repulsion energy      1400.2559387525 Hartrees.
 NAtoms=   53 NActive=   53 NUniq=   53 SFac= 1.00D+00 NAtFMM=   60 NAOKFM=F Big=F
 Integral buffers will be    131072 words long.
 Raffenetti 2 integral format.
 Two-electron integral symmetry is turned off.
 Nuclear repulsion after empirical dispersion term =     1400.1652325553 Hartrees.
 One-electron integrals computed using PRISM.
 NBasis=   598 RedAO= T EigKep=  2.60D-06  NBF=   598
 NBsUse=   598 1.00D-06 EigRej= -1.00D+00 NBFU=   598
 Initial guess from the checkpoint file:  "P5551.chk"
 B after Tr=     0.000000    0.000000    0.000000
         Rot=    1.000000    0.000000    0.000000    0.000000 Ang=   0.00 deg.
 Requested convergence on RMS density matrix=1.00D-10 within 128 cycles.
 Requested convergence on MAX density matrix=1.00D-08.
 Requested convergence on             energy=1.00D-08.
 No special actions if energy rises.
 SCF Done:  E(RB3LYP) =  -972.871767103     A.U. after    2 cycles
            NFock=  2  Conv=0.11D-10     -V/T= 2.0040
 DoSCS=F DFT=T ScalE2(SS,OS)=  1.000000  1.000000
 Range of M.O.s used for correlation:     1   598
 NBasis=   598 NAE=    73 NBE=    73 NFC=     0 NFV=     0
 NROrb=    598 NOA=    73 NOB=    73 NVA=   525 NVB=   525

 **** Warning!!: The largest alpha MO coefficient is  0.11620877D+03

 Symmetrizing basis deriv contribution to polar:
 IMax=3 JMax=2 DiffMx= 0.00D+00
 G2DrvN: will do    54 centers at a time, making    1 passes.
 Calling FoFCou, ICntrl=  3107 FMM=F I1Cent=   0 AccDes= 0.00D+00.
 End of G2Drv F.D. properties file   721 does not exist.
 End of G2Drv F.D. properties file   722 does not exist.
 End of G2Drv F.D. properties file   788 does not exist.
          IDoAtm=11111111111111111111111111111111111111111111111111
          IDoAtm=111
          Differentiating once with respect to electric field.
                with respect to dipole field.
          Differentiating once with respect to nuclear coordinates.
          There are   162 degrees of freedom in the 1st order CPHF.  IDoFFX=6 NUNeed=     3.
    159 vectors produced by pass  0 Test12= 3.83D-14 1.00D-09 XBig12= 1.39D+02 2.58D+00.
 AX will form   159 AO Fock derivatives at one time.
    159 vectors produced by pass  1 Test12= 3.83D-14 1.00D-09 XBig12= 1.33D+01 3.91D-01.
    159 vectors produced by pass  2 Test12= 3.83D-14 1.00D-09 XBig12= 7.37D-02 2.79D-02.
    159 vectors produced by pass  3 Test12= 3.83D-14 1.00D-09 XBig12= 1.20D-04 7.63D-04.
    159 vectors produced by pass  4 Test12= 3.83D-14 1.00D-09 XBig12= 1.48D-07 2.88D-05.
     92 vectors produced by pass  5 Test12= 3.83D-14 1.00D-09 XBig12= 1.22D-10 8.53D-07.
      6 vectors produced by pass  6 Test12= 3.83D-14 1.00D-09 XBig12= 1.14D-13 2.11D-08.
      3 vectors produced by pass  7 Test12= 3.83D-14 1.00D-09 XBig12= 4.22D-15 6.17D-09.
      3 vectors produced by pass  8 Test12= 3.83D-14 1.00D-09 XBig12= 5.27D-15 7.00D-09.
      3 vectors produced by pass  9 Test12= 3.83D-14 1.00D-09 XBig12= 8.59D-15 1.24D-08.
      3 vectors produced by pass 10 Test12= 3.83D-14 1.00D-09 XBig12= 2.18D-14 1.18D-08.
      3 vectors produced by pass 11 Test12= 3.83D-14 1.00D-09 XBig12= 3.44D-15 5.08D-09.
      3 vectors produced by pass 12 Test12= 3.83D-14 1.00D-09 XBig12= 5.18D-15 8.19D-09.
      3 vectors produced by pass 13 Test12= 3.83D-14 1.00D-09 XBig12= 7.34D-15 6.95D-09.
      3 vectors produced by pass 14 Test12= 3.83D-14 1.00D-09 XBig12= 3.42D-15 5.51D-09.
      3 vectors produced by pass 15 Test12= 3.83D-14 1.00D-09 XBig12= 1.03D-14 8.49D-09.
      3 vectors produced by pass 16 Test12= 3.83D-14 1.00D-09 XBig12= 6.82D-15 7.46D-09.
      3 vectors produced by pass 17 Test12= 3.83D-14 1.00D-09 XBig12= 5.06D-15 5.12D-09.
      2 vectors produced by pass 18 Test12= 3.83D-14 1.00D-09 XBig12= 1.47D-15 3.67D-09.
 InvSVY:  IOpt=1 It=  1 EMax= 7.11D-15
 Solved reduced A of dimension   928 with   162 vectors.
 Isotropic polarizability for W=    0.000000      213.58 Bohr**3.
 End of Minotr F.D. properties file   721 does not exist.
 End of Minotr F.D. properties file   722 does not exist.
 End of Minotr F.D. properties file   788 does not exist.

 **********************************************************************

            Population analysis using the SCF density.

 **********************************************************************

 Alpha  occ. eigenvalues --  -77.26416 -10.33684 -10.33683 -10.33648 -10.33618
 Alpha  occ. eigenvalues --  -10.31000 -10.30960 -10.30958 -10.28000 -10.27935
 Alpha  occ. eigenvalues --  -10.27934 -10.26408 -10.26329 -10.26328 -10.24304
 Alpha  occ. eigenvalues --  -10.24224 -10.24223  -6.75985  -4.92034  -4.91997
 Alpha  occ. eigenvalues --   -4.91996  -0.98486  -0.93840  -0.93563  -0.91091
 Alpha  occ. eigenvalues --   -0.87482  -0.87470  -0.87312  -0.82371  -0.80592
 Alpha  occ. eigenvalues --   -0.79903  -0.74269  -0.73691  -0.72798  -0.70065
 Alpha  occ. eigenvalues --   -0.68826  -0.68746  -0.67901  -0.63075  -0.62951
 Alpha  occ. eigenvalues --   -0.61831  -0.59236  -0.59183  -0.57729  -0.56433
 Alpha  occ. eigenvalues --   -0.56101  -0.55441  -0.54953  -0.54950  -0.54610
 Alpha  occ. eigenvalues --   -0.53675  -0.53570  -0.51771  -0.51200  -0.50630
 Alpha  occ. eigenvalues --   -0.50419  -0.49920  -0.49913  -0.48516  -0.48141
 Alpha  occ. eigenvalues --   -0.47595  -0.46417  -0.46408  -0.46268  -0.44340
 Alpha  occ. eigenvalues --   -0.44044  -0.43862  -0.43389  -0.43084  -0.42843
 Alpha  occ. eigenvalues --   -0.42761  -0.42760  -0.42512
 Alpha virt. eigenvalues --   -0.12873  -0.11390  -0.10995  -0.10277  -0.10016
 Alpha virt. eigenvalues --   -0.09836  -0.08522  -0.08093  -0.08026  -0.07195
 Alpha virt. eigenvalues --   -0.06919  -0.06795  -0.05838  -0.05699  -0.05528
 Alpha virt. eigenvalues --   -0.05319  -0.04971  -0.04569  -0.04361  -0.04036
 Alpha virt. eigenvalues --   -0.03338  -0.03220  -0.03032  -0.02742  -0.02429
 Alpha virt. eigenvalues --   -0.02274  -0.02024  -0.01838  -0.01557  -0.01286
 Alpha virt. eigenvalues --   -0.01081  -0.00726  -0.00432  -0.00063   0.00131
 Alpha virt. eigenvalues --    0.00221   0.00730   0.01128   0.01327   0.01415
 Alpha virt. eigenvalues --    0.01750   0.02048   0.02333   0.02480   0.02582
 Alpha virt. eigenvalues --    0.03124   0.03599   0.04055   0.04225   0.04616
 Alpha virt. eigenvalues --    0.04882   0.05046   0.05079   0.05488   0.05781
 Alpha virt. eigenvalues --    0.06004   0.06402   0.06805   0.06942   0.07472
 Alpha virt. eigenvalues --    0.07553   0.07615   0.07980   0.08211   0.08502
 Alpha virt. eigenvalues --    0.08624   0.09049   0.09507   0.09679   0.10118
 Alpha virt. eigenvalues --    0.10703   0.10921   0.11285   0.11306   0.11546
 Alpha virt. eigenvalues --    0.11614   0.12006   0.12180   0.12619   0.12759
 Alpha virt. eigenvalues --    0.13006   0.13160   0.13221   0.13688   0.13837
 Alpha virt. eigenvalues --    0.14451   0.14664   0.14824   0.14843   0.15239
 Alpha virt. eigenvalues --    0.15597   0.16170   0.16287   0.16593   0.16754
 Alpha virt. eigenvalues --    0.17021   0.17090   0.17549   0.17587   0.18451
 Alpha virt. eigenvalues --    0.18767   0.18875   0.19056   0.19253   0.20032
 Alpha virt. eigenvalues --    0.20443   0.20777   0.20971   0.21290   0.21698
 Alpha virt. eigenvalues --    0.22334   0.22699   0.23373   0.23849   0.24197
 Alpha virt. eigenvalues --    0.24669   0.24821   0.26498   0.26798   0.27325
 Alpha virt. eigenvalues --    0.27712   0.29967   0.30803   0.30884   0.31847
 Alpha virt. eigenvalues --    0.32289   0.32455   0.32541   0.33040   0.33154
 Alpha virt. eigenvalues --    0.34083   0.34956   0.36087   0.36643   0.37341
 Alpha virt. eigenvalues --    0.38099   0.38783   0.39339   0.39559   0.39893
 Alpha virt. eigenvalues --    0.40480   0.42373   0.42718   0.43162   0.43972
 Alpha virt. eigenvalues --    0.44117   0.45503   0.45777   0.45996   0.46291
 Alpha virt. eigenvalues --    0.47578   0.48101   0.48369   0.49055   0.49156
 Alpha virt. eigenvalues --    0.49716   0.49750   0.50853   0.51010   0.51284
 Alpha virt. eigenvalues --    0.52017   0.52177   0.53053   0.53302   0.53832
 Alpha virt. eigenvalues --    0.53905   0.54464   0.54544   0.54818   0.55215
 Alpha virt. eigenvalues --    0.55664   0.56098   0.56447   0.56689   0.57000
 Alpha virt. eigenvalues --    0.57497   0.58006   0.58375   0.58529   0.59098
 Alpha virt. eigenvalues --    0.59266   0.59777   0.60324   0.60987   0.61263
 Alpha virt. eigenvalues --    0.61388   0.62448   0.62478   0.62858   0.63420
 Alpha virt. eigenvalues --    0.63622   0.64256   0.64688   0.65173   0.65445
 Alpha virt. eigenvalues --    0.65660   0.66588   0.66659   0.67287   0.67336
 Alpha virt. eigenvalues --    0.68750   0.69141   0.69626   0.70435   0.70771
 Alpha virt. eigenvalues --    0.71076   0.71643   0.71839   0.72458   0.73633
 Alpha virt. eigenvalues --    0.74923   0.75569   0.76868   0.79837   0.80451
 Alpha virt. eigenvalues --    0.81196   0.84056   0.84690   0.84725   0.85260
 Alpha virt. eigenvalues --    0.85764   0.87524   0.88897   0.89126   0.89247
 Alpha virt. eigenvalues --    0.90857   0.91517   0.92345   0.93774   0.95693
 Alpha virt. eigenvalues --    0.96395   0.97344   0.99014   0.99703   1.01648
 Alpha virt. eigenvalues --    1.02722   1.03918   1.05309   1.07453   1.09104
 Alpha virt. eigenvalues --    1.10813   1.11943   1.13879   1.14295   1.15459
 Alpha virt. eigenvalues --    1.15641   1.16240   1.17222   1.17974   1.18090
 Alpha virt. eigenvalues --    1.21451   1.22634   1.23698   1.25599   1.27243
 Alpha virt. eigenvalues --    1.31368   1.35792   1.35863   1.35963   1.36120
 Alpha virt. eigenvalues --    1.37681   1.37756   1.37765   1.37833   1.38526
 Alpha virt. eigenvalues --    1.40618   1.42314   1.43308   1.43790   1.43935
 Alpha virt. eigenvalues --    1.44324   1.44434   1.45597   1.45810   1.46060
 Alpha virt. eigenvalues --    1.46219   1.47197   1.47764   1.48109   1.48364
 Alpha virt. eigenvalues --    1.48765   1.48891   1.49115   1.49366   1.49699
 Alpha virt. eigenvalues --    1.50570   1.50988   1.51062   1.51405   1.51643
 Alpha virt. eigenvalues --    1.52333   1.52451   1.53782   1.53939   1.53950
 Alpha virt. eigenvalues --    1.55044   1.55067   1.56037   1.56277   1.56785
 Alpha virt. eigenvalues --    1.57786   1.57859   1.59282   1.60286   1.60670
 Alpha virt. eigenvalues --    1.61492   1.61939   1.62670   1.62829   1.63056
 Alpha virt. eigenvalues --    1.63262   1.63729   1.63732   1.64737   1.65489
 Alpha virt. eigenvalues --    1.65600   1.66489   1.66494   1.67969   1.69268
 Alpha virt. eigenvalues --    1.69461   1.70647   1.70673   1.71379   1.73038
 Alpha virt. eigenvalues --    1.73868   1.75023   1.77348   1.77472   1.78247
 Alpha virt. eigenvalues --    1.79038   1.82127   1.82899   1.82957   1.83186
 Alpha virt. eigenvalues --    1.86125   1.88210   1.89174   1.90003   1.91190
 Alpha virt. eigenvalues --    1.91712   1.92410   1.93557   1.94546   1.94869
 Alpha virt. eigenvalues --    1.96290   1.98896   1.99549   1.99971   2.01863
 Alpha virt. eigenvalues --    2.03233   2.03577   2.04152   2.05074   2.05321
 Alpha virt. eigenvalues --    2.05762   2.07083   2.07759   2.08290   2.09990
 Alpha virt. eigenvalues --    2.10211   2.10556   2.11523   2.13858   2.14126
 Alpha virt. eigenvalues --    2.14597   2.16677   2.17007   2.19492   2.19648
 Alpha virt. eigenvalues --    2.20238   2.20417   2.21930   2.22944   2.23717
 Alpha virt. eigenvalues --    2.26136   2.27261   2.27718   2.28398   2.28692
 Alpha virt. eigenvalues --    2.28786   2.29125   2.30066   2.30080   2.33977
 Alpha virt. eigenvalues --    2.35276   2.36770   2.36913   2.36983   2.37313
 Alpha virt. eigenvalues --    2.37852   2.37962   2.38315   2.38758   2.41404
 Alpha virt. eigenvalues --    2.41961   2.42263   2.42471   2.42761   2.43049
 Alpha virt. eigenvalues --    2.44021   2.45062   2.45682   2.46651   2.47566
 Alpha virt. eigenvalues --    2.47730   2.48286   2.48714   2.49038   2.49384
 Alpha virt. eigenvalues --    2.49412   2.49663   2.50197   2.52005   2.52142
 Alpha virt. eigenvalues --    2.52767   2.52816   2.54492   2.55697   2.56763
 Alpha virt. eigenvalues --    2.57159   2.57271   2.57877   2.58300   2.58333
 Alpha virt. eigenvalues --    2.61330   2.61338   2.62891   2.62989   2.63244
 Alpha virt. eigenvalues --    2.64541   2.64630   2.65667   2.65978   2.66017
 Alpha virt. eigenvalues --    2.66904   2.66926   2.67822   2.68297   2.68739
 Alpha virt. eigenvalues --    2.71906   2.73049   2.75471   2.76256   2.77821
 Alpha virt. eigenvalues --    2.79159   2.81730   2.82362   2.82560   2.82883
 Alpha virt. eigenvalues --    2.83319   2.83926   2.85125   2.85362   2.89751
 Alpha virt. eigenvalues --    2.90098   2.91899   2.94853   2.95580   2.97648
 Alpha virt. eigenvalues --    3.02118   3.03025   3.04984   3.17072   3.17148
 Alpha virt. eigenvalues --    3.19503   3.23572   3.25163   3.25469   3.32915
 Alpha virt. eigenvalues --    3.34402   3.34440   3.56977   3.59446   3.59533
 Alpha virt. eigenvalues --    3.62385   3.62766   3.67566   3.68420   3.69292
 Alpha virt. eigenvalues --    3.69653   3.69724   3.69915   3.73123   3.73223
 Alpha virt. eigenvalues --    3.73233   3.73894   3.74174   3.74509   3.75883
 Alpha virt. eigenvalues --    3.76045   3.76161   3.95815   3.96244   3.96737
 Alpha virt. eigenvalues --    4.01984   4.02043   4.03323   4.12568   4.12623
 Alpha virt. eigenvalues --    4.13411   4.23938   4.23957   4.24271   7.09795
 Alpha virt. eigenvalues --   13.94046  13.96471  13.99582  23.70768  23.71995
 Alpha virt. eigenvalues --   23.74192  23.76413  23.76483  23.77146  23.78664
 Alpha virt. eigenvalues --   23.79108  23.79391  23.80150  23.80254  23.80299
 Alpha virt. eigenvalues --   23.81447  23.88876  23.88928  23.89039 163.26981
          Condensed to atoms (all electrons):
 Mulliken charges:
               1
     1  P    1.406201
     2  C   -0.313509
     3  C   -0.217458
     4  C   -0.193812
     5  C   -0.312265
     6  C   -0.217618
     7  C   -0.193411
     8  C    0.118832
     9  C   -0.599316
    10  C   -0.181753
    11  C   -0.604520
    12  C   -0.602739
    13  C   -0.602501
    14  C   -0.926387
    15  H    0.240003
    16  H    0.221509
    17  H    0.161669
    18  H    0.167238
    19  H    0.142772
    20  H    0.140915
    21  H    0.221574
    22  H    0.239976
    23  H    0.166961
    24  H    0.161912
    25  H    0.140851
    26  H    0.142800
    27  H    0.229201
    28  H    0.229207
    29  H    0.169582
    30  H    0.169962
    31  H    0.141609
    32  H    0.141717
    33  H    0.140615
    34  H    0.140570
    35  H    0.155852
    36  H    0.140153
    37  H    0.155988
    38  H    0.140928
    39  H    0.140901
    40  H    0.140167
    41  H    0.156004
    42  H    0.233024
    43  H    0.237295
    44  H    0.237147
    45  C   -0.574220
    46  H    0.155089
    47  H    0.155312
    48  C   -0.581625
    49  H    0.153236
    50  H    0.156396
    51  C   -0.581701
    52  H    0.156455
    53  H    0.153215
 Sum of Mulliken charges =   1.00000
 Mulliken charges with hydrogens summed into heavy atoms:
               1
     1  P    1.406201
     2  C    0.148003
     3  C    0.111449
     4  C    0.089875
     5  C    0.149285
     6  C    0.111254
     7  C    0.090240
     8  C    0.577241
     9  C   -0.259772
    10  C    0.101573
    11  C   -0.167483
    12  C   -0.165670
    13  C   -0.165430
    14  C   -0.218921
    45  C   -0.263820
    48  C   -0.271992
    51  C   -0.272031
 APT charges:
               1
     1  P    1.210688
     2  C   -0.208382
     3  C    0.078898
     4  C    0.116298
     5  C   -0.208365
     6  C    0.079083
     7  C    0.116340
     8  C   -0.204624
     9  C    0.083761
    10  C    0.116022
    11  C    0.065326
    12  C    0.063695
    13  C    0.063693
    14  C   -0.297029
    15  H    0.025523
    16  H    0.022134
    17  H   -0.017371
    18  H   -0.020409
    19  H   -0.040591
    20  H   -0.041918
    21  H    0.022049
    22  H    0.025532
    23  H   -0.020386
    24  H   -0.017412
    25  H   -0.041947
    26  H   -0.040585
    27  H    0.025673
    28  H    0.025714
    29  H   -0.020916
    30  H   -0.020905
    31  H   -0.041252
    32  H   -0.041190
    33  H   -0.014072
    34  H   -0.014100
    35  H   -0.017443
    36  H   -0.013975
    37  H   -0.018771
    38  H   -0.014052
    39  H   -0.014064
    40  H   -0.013962
    41  H   -0.018759
    42  H    0.049672
    43  H    0.065647
    44  H    0.065584
    45  C    0.099122
    46  H   -0.031655
    47  H   -0.031571
    48  C    0.096633
    49  H   -0.031463
    50  H   -0.032507
    51  C    0.096567
    52  H   -0.032475
    53  H   -0.031504
 Sum of APT charges =   1.00000
 APT charges with hydrogens summed into heavy atoms:
               1
     1  P    1.210688
     2  C   -0.160725
     3  C    0.041119
     4  C    0.033789
     5  C   -0.160783
     6  C    0.041285
     7  C    0.033808
     8  C   -0.153236
     9  C    0.041941
    10  C    0.033581
    11  C    0.019711
    12  C    0.016896
    13  C    0.016909
    14  C   -0.116126
    45  C    0.035896
    48  C    0.032663
    51  C    0.032587
 Electronic spatial extent (au):  <R**2>=          15471.2832
 Charge=              1.0000 electrons
 Dipole moment (field-independent basis, Debye):
    X=             -3.4786    Y=              4.2897    Z=             12.0716  Tot=             13.2750
 Quadrupole moment (field-independent basis, Debye-Ang):
   XX=            -89.9161   YY=           -107.3689   ZZ=            -67.4807
   XY=             -0.6191   XZ=             -3.6601   YZ=             15.7360
 Traceless Quadrupole moment (field-independent basis, Debye-Ang):
   XX=             -1.6609   YY=            -19.1137   ZZ=             20.7746
   XY=             -0.6191   XZ=             -3.6601   YZ=             15.7360
 Octapole moment (field-independent basis, Debye-Ang**2):
  XXX=            347.4396  YYY=           -267.7696  ZZZ=           -867.8104  XYY=            123.5922
  XXY=            -81.7076  XXZ=           -290.7712  XZZ=            106.7043  YZZ=            -22.3604
  YYZ=           -341.4716  XYZ=            -16.5938
 Hexadecapole moment (field-independent basis, Debye-Ang**3):
 XXXX=          -7183.5684 YYYY=          -1871.6474 ZZZZ=         -10231.4494 XXXY=             58.4859
 XXXZ=            238.1940 YYYX=              1.3470 YYYZ=          -1700.5958 ZZZX=             20.4736
 ZZZY=          -1347.9129 XXYY=          -1544.9304 XXZZ=          -2707.0245 YYZZ=          -2107.5687
 XXYZ=           -431.0512 YYXZ=             25.3232 ZZXY=            -86.4927
 N-N= 1.400165232555D+03 E-N=-5.053327167363D+03  KE= 9.690104285588D+02
  Exact polarizability: 236.099   5.770 186.912  17.358  15.029 217.735
 Approx polarizability: 288.515   0.819 282.524   2.789   1.833 285.756
 Breneman (CHELPG) radii used.
 Generate Potential Derived Charges using the Breneman model, NDens= 1.
 Grid spacing= 0.300 Box extension= 2.800
 NStep X,Y,Z=   61     41     53   Total possible points=      132553
 Number of Points to Fit=   27561

 **********************************************************************

            Electrostatic Properties Using The SCF Density

 **********************************************************************

       Atomic Center    1 is at  -0.511436  0.906292  2.193362
       Atomic Center    2 is at  -1.584046 -0.431401  1.584199
       Atomic Center    3 is at  -2.819871  0.047517  0.807770
       Atomic Center    4 is at  -4.908621 -0.678324 -0.464099
       Atomic Center    5 is at   0.819080  0.182074  3.201396
       Atomic Center    6 is at   1.737812  1.211029  3.877349
       Atomic Center    7 is at   3.769186  1.538551  5.384652
       Atomic Center    8 is at  -1.479818  2.081725  3.185308
       Atomic Center    9 is at  -2.148114  1.450503  4.415374
       Atomic Center   10 is at  -3.632757  1.874245  6.445987
       Atomic Center   11 is at  -4.437966  2.903455  7.240503
       Atomic Center   12 is at   4.873891  0.860551  6.196327
       Atomic Center   13 is at  -5.748202 -1.854102 -0.965708
       Atomic Center   14 is at   0.210479  1.788966  0.785005
       Atomic Center   15 is at  -1.879394 -1.022521  2.456356
       Atomic Center   16 is at  -0.957379 -1.079097  0.962226
       Atomic Center   17 is at  -2.513440  0.661810 -0.045325
       Atomic Center   18 is at  -3.437424  0.683770  1.449867
       Atomic Center   19 is at  -4.603635 -0.055376 -1.312880
       Atomic Center   20 is at  -5.520086 -0.039105  0.183338
       Atomic Center   21 is at   1.390200 -0.478866  2.541053
       Atomic Center   22 is at   0.338333 -0.457593  3.947704
       Atomic Center   23 is at   1.149731  1.855275  4.538831
       Atomic Center   24 is at   2.192035  1.862421  3.123455
       Atomic Center   25 is at   3.172454  2.182415  6.041188
       Atomic Center   26 is at   4.217217  2.197080  4.631572
       Atomic Center   27 is at  -2.225654  2.524393  2.518393
       Atomic Center   28 is at  -0.801558  2.888560  3.478337
       Atomic Center   29 is at  -2.810594  0.636498  4.102826
       Atomic Center   30 is at  -1.387662  1.005301  5.065520
       Atomic Center   31 is at  -4.290629  1.056115  6.130533
       Atomic Center   32 is at  -2.870355  1.424500  7.092591
       Atomic Center   33 is at  -3.798475  3.716197  7.596437
       Atomic Center   34 is at  -5.228723  3.345177  6.627485
       Atomic Center   35 is at  -4.909999  2.446093  8.112378
       Atomic Center   36 is at   4.454132  0.221185  6.978142
       Atomic Center   37 is at   5.516241  1.598962  6.680369
       Atomic Center   38 is at   5.506410  0.236502  5.558668
       Atomic Center   39 is at  -5.171270 -2.491551 -1.641688
       Atomic Center   40 is at  -6.094131 -2.475622 -0.134875
       Atomic Center   41 is at  -6.628867 -1.505453 -1.508873
       Atomic Center   42 is at   0.797608  1.098547  0.176969
       Atomic Center   43 is at   0.857290  2.590967  1.142603
       Atomic Center   44 is at  -0.582315  2.220626  0.172925
       Atomic Center   45 is at  -2.954975  2.479050  5.213746
       Atomic Center   46 is at  -3.714073  2.927873  4.562158
       Atomic Center   47 is at  -2.292909  3.295979  5.524421
       Atomic Center   48 is at  -3.663005 -1.128294  0.303843
       Atomic Center   49 is at  -3.963720 -1.749101  1.156211
       Atomic Center   50 is at  -3.046677 -1.766082 -0.340666
       Atomic Center   51 is at   2.846002  0.533864  4.690176
       Atomic Center   52 is at   3.437783 -0.110684  4.029604
       Atomic Center   53 is at   2.392916 -0.125209  5.440311
   27561 points will be used for fitting atomic charges
 Fitting point charges to electrostatic potential
 The dipole moment will be constrained to the correct value
 Charges from ESP fit, RMS=   0.00190 RRMS=   0.01999:
 ESP charges:
               1
     1  P    0.536626
     2  C   -0.192563
     3  C    0.026145
     4  C    0.122385
     5  C   -0.175326
     6  C    0.048875
     7  C    0.129174
     8  C   -0.065249
     9  C   -0.015893
    10  C    0.128500
    11  C   -0.177877
    12  C   -0.174679
    13  C   -0.153840
    14  C   -0.394800
    15  H    0.071662
    16  H    0.091633
    17  H    0.013173
    18  H    0.026221
    19  H   -0.015795
    20  H   -0.020158
    21  H    0.086194
    22  H    0.063970
    23  H    0.020678
    24  H    0.004996
    25  H   -0.020237
    26  H   -0.014148
    27  H    0.043479
    28  H    0.042694
    29  H    0.029771
    30  H    0.028742
    31  H   -0.017665
    32  H   -0.016690
    33  H    0.044061
    34  H    0.043996
    35  H    0.063937
    36  H    0.042775
    37  H    0.062486
    38  H    0.044344
    39  H    0.038186
    40  H    0.037203
    41  H    0.057570
    42  H    0.163160
    43  H    0.145284
    44  H    0.146405
    45  C   -0.045826
    46  H    0.031610
    47  H    0.032161
    48  C   -0.027837
    49  H    0.027230
    50  H    0.023354
    51  C   -0.048354
    52  H    0.026663
    53  H    0.031597
 Sum of ESP charges =   1.00000
 ESP charges with hydrogens summed into heavy atoms:
               1
     1  P    0.536626
     2  C   -0.029267
     3  C    0.065539
     4  C    0.086432
     5  C   -0.025162
     6  C    0.074550
     7  C    0.094789
     8  C    0.020924
     9  C    0.042620
    10  C    0.094145
    11  C   -0.025884
    12  C   -0.025075
    13  C   -0.020882
    14  C    0.060050
    45  C    0.017946
    48  C    0.022746
    51  C    0.009905
 Charge=   1.00000 Dipole=    -3.4786     4.2897    12.0716 Tot=    13.2750
 -----------------------------------------------------------------

              Electrostatic Properties (Atomic Units)

 -----------------------------------------------------------------
    Center     Electric         -------- Electric Field --------
               Potential          X             Y             Z
 -----------------------------------------------------------------
    1 Atom    -53.971269
    2 Atom    -14.610237
    3 Atom    -14.635947
    4 Atom    -14.681860
    5 Atom    -14.610220
    6 Atom    -14.635961
    7 Atom    -14.681861
    8 Atom    -14.610857
    9 Atom    -14.635500
   10 Atom    -14.681060
   11 Atom    -14.702654
   12 Atom    -14.703463
   13 Atom    -14.703451
   14 Atom    -14.610222
   15 Atom     -0.950739
   16 Atom     -0.949946
   17 Atom     -0.992058
   18 Atom     -0.992435
   19 Atom     -1.037732
   20 Atom     -1.037616
   21 Atom     -0.949932
   22 Atom     -0.950736
   23 Atom     -0.992454
   24 Atom     -0.992090
   25 Atom     -1.037618
   26 Atom     -1.037736
   27 Atom     -0.950630
   28 Atom     -0.950634
   29 Atom     -0.991674
   30 Atom     -0.991693
   31 Atom     -1.036842
   32 Atom     -1.036848
   33 Atom     -1.045599
   34 Atom     -1.045594
   35 Atom     -1.046213
   36 Atom     -1.046374
   37 Atom     -1.047016
   38 Atom     -1.046450
   39 Atom     -1.046438
   40 Atom     -1.046363
   41 Atom     -1.047009
   42 Atom     -0.938418
   43 Atom     -0.938673
   44 Atom     -0.938664
   45 Atom    -14.665979
   46 Atom     -1.019323
   47 Atom     -1.019331
   48 Atom    -14.666621
   49 Atom     -1.019930
   50 Atom     -1.020126
   51 Atom    -14.666630
   52 Atom     -1.020137
   53 Atom     -1.019938
 -----------------------------------------------------------------
 Calling FoFJK, ICntrl=    100127 FMM=F ISym2X=0 I1Cent= 0 IOpClX= 0 NMat=1 NMatS=1 NMatT=0.
 Full mass-weighted force constant matrix:
 Low frequencies ---   -6.6012   -4.4304   -0.0019   -0.0010    0.0009    3.9026
 Low frequencies ---   17.1480   22.0958   35.1073
 Diagonal vibrational polarizability:
       35.8530132      34.3954727      49.7399040
 Harmonic frequencies (cm**-1), IR intensities (KM/Mole), Raman scattering
 activities (A**4/AMU), depolarization ratios for plane and unpolarized
 incident light, reduced masses (AMU), force constants (mDyne/A),
 and normal coordinates:
                      1                      2                      3
                      A                      A                      A
 Frequencies --     17.1199                22.0740                35.0977
 Red. masses --      3.7489                 3.7910                 3.8426
 Frc consts  --      0.0006                 0.0011                 0.0028
 IR Inten    --      0.2605                 0.8618                 1.3580
  Atom  AN      X      Y      Z        X      Y      Z        X      Y      Z
     1  15    -0.03  -0.01  -0.03     0.05   0.00  -0.07     0.01  -0.11   0.03
     2   6    -0.03  -0.02  -0.02     0.05   0.01  -0.07    -0.02  -0.09   0.03
     3   6    -0.02  -0.02  -0.06     0.01   0.02  -0.00     0.00  -0.03   0.04
     4   6     0.02  -0.04  -0.10    -0.08   0.04   0.14    -0.01   0.14  -0.02
     5   6    -0.03  -0.00  -0.03     0.05   0.01  -0.07     0.01  -0.08   0.05
     6   6    -0.06   0.01   0.00     0.01   0.01  -0.02    -0.02  -0.03   0.01
     7   6    -0.12   0.03   0.07    -0.09   0.03   0.10    -0.02   0.13  -0.03
     8   6    -0.02  -0.01  -0.03     0.05  -0.01  -0.06     0.02  -0.08   0.00
     9   6     0.03   0.00   0.01     0.05  -0.03  -0.07     0.01  -0.06   0.01
    10   6     0.17   0.04   0.11     0.05  -0.07  -0.07     0.01  -0.02  -0.00
    11   6     0.25   0.05   0.16     0.03  -0.10  -0.05     0.01  -0.00  -0.02
    12   6    -0.13   0.04   0.09    -0.13   0.04   0.18     0.04   0.24  -0.03
    13   6     0.03  -0.05  -0.11    -0.13   0.05   0.20    -0.07   0.21  -0.10
    14   6    -0.04  -0.01  -0.04     0.05   0.01  -0.07     0.03  -0.15   0.01
    15   1    -0.05   0.00  -0.02     0.09  -0.02  -0.08    -0.04  -0.08   0.03
    16   1    -0.03  -0.03   0.00     0.03   0.03  -0.12    -0.04  -0.11   0.03
    17   1     0.00  -0.04  -0.06    -0.03   0.02  -0.02     0.03  -0.01   0.06
    18   1    -0.03  -0.02  -0.08     0.05   0.01   0.03     0.02  -0.03   0.05
    19   1     0.04  -0.05  -0.10    -0.15   0.04   0.12     0.04   0.17   0.02
    20   1    -0.00  -0.03  -0.13    -0.03   0.04   0.19     0.01   0.13   0.01
    21   1    -0.00   0.03  -0.04     0.08   0.03  -0.07     0.02  -0.09   0.07
    22   1    -0.02  -0.03  -0.05     0.05  -0.02  -0.09     0.02  -0.07   0.07
    23   1    -0.09  -0.01  -0.00    -0.03   0.00  -0.05    -0.04  -0.04   0.00
    24   1    -0.06   0.03   0.02     0.04   0.02   0.00    -0.05  -0.04  -0.01
    25   1    -0.15   0.00   0.06    -0.14   0.01   0.07    -0.05   0.12  -0.05
    26   1    -0.11   0.05   0.09    -0.04   0.04   0.14    -0.07   0.13  -0.07
    27   1    -0.05  -0.03  -0.01     0.04  -0.01  -0.06     0.03  -0.09  -0.01
    28   1    -0.03   0.01  -0.06     0.04  -0.01  -0.05     0.03  -0.09  -0.01
    29   1    -0.00   0.01   0.05     0.06  -0.03  -0.08     0.00  -0.06   0.02
    30   1     0.05  -0.01  -0.03     0.06  -0.03  -0.07     0.00  -0.06   0.02
    31   1     0.13   0.05   0.15     0.06  -0.08  -0.08     0.00  -0.02   0.01
    32   1     0.21   0.02   0.05     0.05  -0.07  -0.07    -0.00  -0.02   0.01
    33   1     0.29   0.04   0.11     0.02  -0.09  -0.04     0.01  -0.00  -0.03
    34   1     0.21   0.07   0.22     0.02  -0.10  -0.05     0.02  -0.00  -0.03
    35   1     0.30   0.07   0.20     0.04  -0.12  -0.06     0.00   0.01  -0.02
    36   1    -0.14   0.02   0.07    -0.18   0.03   0.14     0.09   0.24   0.01
    37   1    -0.16   0.05   0.13    -0.18   0.04   0.23    -0.00   0.30  -0.07
    38   1    -0.09   0.07   0.10    -0.08   0.05   0.22     0.07   0.25  -0.01
    39   1     0.05  -0.06  -0.09    -0.19   0.05   0.15    -0.09   0.22  -0.13
    40   1     0.01  -0.04  -0.11    -0.07   0.05   0.22    -0.11   0.18  -0.14
    41   1     0.05  -0.06  -0.14    -0.17   0.06   0.27    -0.04   0.29  -0.09
    42   1    -0.07  -0.02  -0.05     0.05   0.02  -0.07     0.02  -0.17   0.03
    43   1    -0.02  -0.03  -0.04     0.04   0.02  -0.06     0.04  -0.15   0.00
    44   1    -0.05   0.01  -0.02     0.05   0.01  -0.07     0.04  -0.15   0.00
    45   6     0.09   0.02   0.06     0.04  -0.05  -0.06     0.01  -0.04  -0.01
    46   1     0.06   0.02   0.10     0.04  -0.05  -0.05     0.02  -0.05  -0.02
    47   1     0.12   0.01   0.01     0.03  -0.04  -0.05     0.02  -0.04  -0.02
    48   6    -0.00  -0.03  -0.06    -0.03   0.02   0.04    -0.05   0.03  -0.02
    49   1    -0.03  -0.02  -0.06     0.03   0.01   0.05    -0.09   0.01  -0.06
    50   1     0.01  -0.04  -0.03    -0.07   0.03  -0.02    -0.07   0.03  -0.04
    51   6    -0.07   0.02   0.02    -0.02   0.02   0.03     0.02   0.05   0.02
    52   1    -0.03   0.04   0.03     0.03   0.04   0.06     0.05   0.05   0.04
    53   1    -0.08  -0.01  -0.01    -0.06   0.00  -0.00     0.07   0.06   0.06
                      4                      5                      6
                      A                      A                      A
 Frequencies --     37.1683                44.0711                49.9908
 Red. masses --      1.5801                 1.5697                 1.5978
 Frc consts  --      0.0013                 0.0018                 0.0024
 IR Inten    --      0.0044                 0.0047                 0.0001
  Atom  AN      X      Y      Z        X      Y      Z        X      Y      Z
     1  15     0.00  -0.00  -0.00     0.00  -0.00  -0.01    -0.00  -0.00  -0.00
     2   6     0.00   0.00   0.00     0.01  -0.00  -0.02    -0.01   0.00   0.01
     3   6     0.04  -0.00  -0.05    -0.04  -0.00   0.07     0.01   0.00  -0.03
     4   6     0.03  -0.00  -0.05    -0.06  -0.01   0.10     0.03   0.01  -0.06
     5   6     0.01  -0.00  -0.01     0.01  -0.00  -0.01     0.00  -0.00  -0.01
     6   6    -0.05  -0.00   0.08    -0.04  -0.00   0.05    -0.01  -0.00   0.01
     7   6    -0.06   0.00   0.08    -0.05  -0.01   0.07    -0.03  -0.01   0.03
     8   6     0.01   0.00   0.00     0.00  -0.01  -0.01     0.01   0.00   0.00
     9   6    -0.04  -0.01  -0.03     0.02   0.00   0.01     0.09   0.02   0.06
    10   6    -0.05  -0.01  -0.04     0.02   0.03   0.00     0.11   0.02   0.07
    11   6     0.03   0.01   0.01    -0.01   0.04  -0.03    -0.09  -0.03  -0.06
    12   6     0.06   0.01  -0.07     0.03  -0.02  -0.04     0.00  -0.01  -0.01
    13   6    -0.03  -0.00   0.06     0.04  -0.01  -0.07    -0.02   0.01   0.02
    14   6     0.01  -0.00  -0.00     0.00   0.00  -0.01    -0.02  -0.01  -0.01
    15   1    -0.04   0.04   0.01     0.07  -0.06  -0.03    -0.04   0.03   0.02
    16   1     0.01  -0.03   0.05    -0.00   0.05  -0.08    -0.01  -0.03   0.05
    17   1     0.08  -0.08  -0.10    -0.11   0.12   0.13     0.04  -0.05  -0.05
    18   1     0.06   0.08  -0.12    -0.07  -0.12   0.16     0.02   0.05  -0.07
    19   1     0.09  -0.11  -0.11    -0.17   0.17   0.19     0.09  -0.08  -0.10
    20   1     0.06   0.11  -0.13    -0.10  -0.18   0.24     0.04   0.10  -0.13
    21   1     0.06   0.06  -0.03     0.04   0.04  -0.03     0.01   0.02  -0.02
    22   1     0.02  -0.07  -0.06     0.02  -0.05  -0.05     0.01  -0.02  -0.03
    23   1    -0.09  -0.12   0.17    -0.06  -0.09   0.11    -0.02  -0.03   0.03
    24   1    -0.13   0.12   0.14    -0.09   0.08   0.09    -0.03   0.03   0.02
    25   1    -0.11  -0.17   0.21    -0.09  -0.15   0.17    -0.05  -0.07   0.07
    26   1    -0.17   0.17   0.17    -0.13   0.13   0.15    -0.06   0.05   0.06
    27   1     0.04   0.04  -0.00    -0.01  -0.02  -0.01    -0.04  -0.04   0.02
    28   1     0.02  -0.03   0.04    -0.00   0.00  -0.02    -0.01   0.04  -0.05
    29   1    -0.08   0.04  -0.07     0.04  -0.02   0.03     0.17  -0.07   0.13
    30   1    -0.07  -0.09  -0.04     0.03   0.04   0.01     0.14   0.16   0.08
    31   1    -0.11   0.06  -0.09     0.05  -0.00   0.04     0.27  -0.15   0.19
    32   1    -0.09  -0.11  -0.05     0.04   0.08   0.02     0.21   0.27   0.12
    33   1     0.09  -0.06   0.07    -0.03   0.07  -0.07    -0.26   0.16  -0.19
    34   1     0.08   0.12   0.02    -0.03  -0.01  -0.05    -0.20  -0.29  -0.11
    35   1    -0.03   0.00  -0.02     0.01   0.06  -0.01     0.03  -0.00   0.02
    36   1     0.17  -0.18  -0.16     0.11  -0.16  -0.12     0.03  -0.07  -0.05
    37   1    -0.02   0.01   0.02    -0.03  -0.02   0.04    -0.02  -0.01   0.03
    38   1     0.11   0.19  -0.20     0.08   0.13  -0.14     0.03   0.05  -0.05
    39   1    -0.06  -0.12   0.15     0.08   0.18  -0.21    -0.04  -0.08   0.10
    40   1    -0.10   0.11   0.13     0.16  -0.20  -0.16    -0.09   0.11   0.06
    41   1     0.00  -0.00   0.01    -0.03  -0.01   0.05     0.02   0.02  -0.05
    42   1    -0.02  -0.01  -0.02     0.01   0.00  -0.01    -0.06  -0.02  -0.04
    43   1     0.03  -0.02  -0.00    -0.00   0.00  -0.00     0.02  -0.03  -0.02
    44   1     0.01   0.02   0.01     0.00  -0.00  -0.01    -0.02   0.02   0.01
    45   6     0.02   0.01   0.01    -0.00   0.01  -0.02    -0.03  -0.01  -0.02
    46   1     0.07   0.09   0.02    -0.02  -0.03  -0.03    -0.12  -0.19  -0.04
    47   1     0.07  -0.06   0.06    -0.02   0.03  -0.05    -0.14   0.12  -0.13
    48   6    -0.01  -0.00   0.03     0.03  -0.00  -0.04    -0.02   0.00   0.02
    49   1    -0.07   0.09   0.08     0.13  -0.15  -0.11    -0.08   0.07   0.05
    50   1    -0.03  -0.09   0.10     0.04   0.14  -0.17    -0.03  -0.07   0.09
    51   6     0.03   0.00  -0.03     0.02  -0.01  -0.03     0.01  -0.00  -0.02
    52   1     0.08   0.15  -0.13     0.06   0.11  -0.10     0.03   0.04  -0.05
    53   1     0.11  -0.15  -0.11     0.07  -0.12  -0.10     0.02  -0.05  -0.05
                      7                      8                      9
                      A                      A                      A
 Frequencies --     65.1252                76.5062                90.9153
 Red. masses --      2.6914                 3.2425                 3.0117
 Frc consts  --      0.0067                 0.0112                 0.0147
 IR Inten    --      0.0009                 0.0413                 0.0017
  Atom  AN      X      Y      Z        X      Y      Z        X      Y      Z
     1  15     0.00   0.00   0.00    -0.00  -0.02   0.01     0.00   0.00  -0.00
     2   6     0.06  -0.00  -0.09     0.06  -0.03  -0.08    -0.04   0.06  -0.06
     3   6     0.06  -0.00  -0.09     0.05  -0.03  -0.07    -0.02   0.08  -0.09
     4   6    -0.01   0.00   0.02     0.01   0.00  -0.01    -0.06  -0.03  -0.02
     5   6    -0.06   0.00   0.09     0.06  -0.03  -0.07    -0.05  -0.09   0.00
     6   6    -0.06   0.00   0.09     0.05  -0.03  -0.07    -0.06  -0.10   0.04
     7   6     0.02  -0.00  -0.02    -0.00   0.00  -0.01    -0.05   0.01  -0.05
     8   6    -0.08  -0.02  -0.05    -0.03  -0.12   0.09     0.07   0.02   0.05
     9   6    -0.07  -0.02  -0.05    -0.03  -0.12   0.09     0.11   0.03   0.07
    10   6     0.06   0.01   0.04    -0.06   0.07   0.08     0.00   0.00   0.00
    11   6     0.07   0.01   0.05    -0.02   0.18  -0.04    -0.08  -0.02  -0.05
    12   6     0.06  -0.01  -0.08    -0.04   0.03   0.06     0.01   0.11  -0.05
    13   6    -0.06   0.01   0.09    -0.05   0.02   0.06    -0.00  -0.11   0.05
    14   6     0.10   0.02   0.06    -0.08   0.14   0.07     0.06   0.02   0.04
    15   1     0.06  -0.05  -0.12     0.06  -0.08  -0.12    -0.08   0.06  -0.08
    16   1     0.09   0.04  -0.10     0.09   0.02  -0.10    -0.04   0.05  -0.05
    17   1     0.05   0.01  -0.08     0.05  -0.01  -0.06    -0.00   0.08  -0.09
    18   1     0.05  -0.02  -0.08     0.05  -0.04  -0.06    -0.04   0.07  -0.10
    19   1    -0.09   0.01  -0.00    -0.03  -0.01  -0.03    -0.16  -0.02  -0.05
    20   1     0.05  -0.00   0.08     0.07   0.02   0.03    -0.07  -0.07   0.01
    21   1    -0.05  -0.03   0.14     0.05   0.01  -0.12    -0.04  -0.07  -0.01
    22   1    -0.11   0.04   0.09     0.10  -0.07  -0.08    -0.07  -0.10  -0.03
    23   1    -0.06   0.02   0.07     0.05  -0.04  -0.06    -0.08  -0.10   0.03
    24   1    -0.05  -0.01   0.08     0.04  -0.01  -0.07    -0.05  -0.09   0.05
    25   1     0.10   0.05   0.00    -0.06  -0.02  -0.05    -0.03   0.05  -0.08
    26   1    -0.02  -0.05  -0.08     0.03   0.02   0.02    -0.10  -0.05  -0.13
    27   1    -0.08  -0.06  -0.08    -0.04  -0.11   0.10     0.04   0.03   0.08
    28   1    -0.11   0.01  -0.05    -0.05  -0.11   0.10     0.10   0.00   0.01
    29   1    -0.04  -0.04  -0.04    -0.04  -0.11   0.10     0.08   0.04   0.10
    30   1    -0.06   0.02  -0.04    -0.04  -0.11   0.10     0.13   0.01   0.05
    31   1     0.09  -0.06   0.16    -0.09   0.07   0.14     0.03   0.03  -0.11
    32   1     0.16   0.11  -0.00    -0.09   0.09   0.13    -0.08  -0.04   0.07
    33   1     0.04   0.09  -0.08     0.01   0.19  -0.11    -0.11  -0.04   0.06
    34   1    -0.03  -0.09   0.10     0.01   0.17  -0.10     0.01   0.02  -0.14
    35   1     0.19   0.04   0.13    -0.06   0.30  -0.00    -0.20  -0.05  -0.13
    36   1     0.11   0.04  -0.02    -0.08   0.01   0.03     0.06   0.17   0.04
    37   1     0.13  -0.01  -0.17    -0.09   0.04   0.10     0.01   0.17  -0.15
    38   1    -0.01  -0.06  -0.11     0.02   0.04   0.10    -0.01   0.06  -0.02
    39   1    -0.12   0.01   0.03    -0.11  -0.00   0.02     0.00  -0.07   0.02
    40   1     0.02   0.01   0.12    -0.01   0.04   0.09     0.11  -0.12   0.08
    41   1    -0.11   0.02   0.17    -0.08   0.04   0.11    -0.07  -0.18   0.11
    42   1     0.19   0.04   0.13    -0.04   0.24   0.00     0.04   0.01   0.03
    43   1     0.02   0.06   0.12    -0.13   0.15   0.13     0.09  -0.03   0.08
    44   1     0.14  -0.03  -0.02    -0.12   0.14   0.13     0.09   0.07   0.05
    45   6    -0.10  -0.02  -0.07    -0.02  -0.06   0.04     0.15   0.04   0.10
    46   1    -0.19  -0.13  -0.04     0.01  -0.07   0.00     0.23   0.15   0.08
    47   1    -0.14   0.05  -0.18     0.01  -0.06  -0.01     0.19  -0.04   0.20
    48   6     0.06  -0.00  -0.09     0.05  -0.02  -0.08     0.01   0.05  -0.09
    49   1     0.13  -0.05  -0.10     0.09  -0.05  -0.09     0.09   0.01  -0.09
    50   1     0.03   0.04  -0.16     0.03   0.01  -0.13     0.02   0.10  -0.13
    51   6    -0.07   0.00   0.09     0.06  -0.01  -0.07    -0.06  -0.06   0.06
    52   1    -0.13  -0.07   0.11     0.11   0.03  -0.08    -0.08  -0.11   0.10
    53   1    -0.07   0.07   0.15     0.07  -0.06  -0.11    -0.05  -0.00   0.12
                     10                     11                     12
                      A                      A                      A
 Frequencies --    106.2793               112.6035               122.5920
 Red. masses --      2.6635                 2.4449                 1.6942
 Frc consts  --      0.0177                 0.0183                 0.0150
 IR Inten    --      0.0578                 0.2211                 0.0102
  Atom  AN      X      Y      Z        X      Y      Z        X      Y      Z
     1  15    -0.02  -0.01  -0.01     0.02   0.01  -0.04     0.00   0.00   0.00
     2   6     0.03  -0.07   0.03     0.03   0.01  -0.06    -0.02   0.01   0.02
     3   6     0.07  -0.10  -0.04    -0.06   0.01   0.10     0.05   0.01  -0.08
     4   6     0.03   0.01   0.03     0.01   0.00  -0.01    -0.04   0.00   0.06
     5   6     0.02   0.08  -0.01     0.04   0.00  -0.05     0.02  -0.01  -0.02
     6   6    -0.05   0.11   0.06    -0.06   0.00   0.08    -0.07  -0.01   0.11
     7   6     0.04   0.01   0.01     0.00   0.00  -0.01     0.06  -0.00  -0.07
     8   6    -0.03  -0.01  -0.02     0.01  -0.05   0.01     0.02   0.00   0.01
     9   6     0.07   0.01   0.05     0.02  -0.09  -0.00    -0.06  -0.02  -0.05
    10   6    -0.01  -0.00  -0.00     0.01  -0.01  -0.00     0.03   0.01   0.02
    11   6    -0.05  -0.01  -0.04     0.03   0.06  -0.07    -0.01  -0.00  -0.01
    12   6     0.01  -0.10  -0.04     0.03  -0.00  -0.05    -0.03   0.01   0.05
    13   6    -0.06   0.09  -0.00     0.04  -0.01  -0.05     0.03  -0.01  -0.03
    14   6    -0.10  -0.02  -0.06    -0.02   0.10  -0.00    -0.02  -0.00  -0.01
    15   1    -0.00  -0.02   0.06     0.14  -0.07  -0.07    -0.10   0.09   0.05
    16   1     0.06  -0.10   0.10     0.00   0.08  -0.17    -0.01  -0.07   0.11
    17   1     0.11  -0.12  -0.04    -0.15   0.05   0.09     0.13  -0.12  -0.15
    18   1     0.04  -0.08  -0.08    -0.01  -0.02   0.18     0.08   0.14  -0.18
    19   1    -0.00   0.05   0.06     0.12  -0.05  -0.01    -0.06   0.08   0.11
    20   1     0.09  -0.01   0.11    -0.05   0.05  -0.12    -0.07  -0.07   0.10
    21   1     0.09   0.14  -0.01     0.11   0.10  -0.09     0.09   0.10  -0.08
    22   1     0.05   0.02  -0.04     0.04  -0.09  -0.13     0.05  -0.12  -0.10
    23   1    -0.10   0.07   0.06    -0.13  -0.05   0.07    -0.12  -0.18   0.23
    24   1    -0.04   0.14   0.10    -0.03   0.06   0.14    -0.17   0.16   0.19
    25   1     0.13   0.08   0.03     0.09   0.08  -0.01     0.06   0.08  -0.16
    26   1     0.07  -0.04  -0.02    -0.02  -0.07  -0.09     0.13  -0.09  -0.10
    27   1    -0.09  -0.08   0.00    -0.00  -0.04   0.03     0.07   0.07   0.00
    28   1    -0.05   0.04  -0.10    -0.00  -0.05   0.03     0.05  -0.04   0.08
    29   1     0.06  -0.00   0.11     0.02  -0.09  -0.01    -0.12   0.05  -0.11
    30   1     0.12   0.03   0.01     0.02  -0.09  -0.01    -0.12  -0.12  -0.05
    31   1    -0.01   0.03  -0.10    -0.02  -0.00   0.03     0.07  -0.04   0.06
    32   1    -0.08  -0.05   0.04    -0.01  -0.00   0.03     0.06   0.07   0.03
    33   1    -0.05  -0.05   0.07     0.06   0.06  -0.11    -0.06   0.06  -0.08
    34   1     0.03   0.05  -0.10     0.06   0.06  -0.11    -0.06  -0.10  -0.01
    35   1    -0.16  -0.03  -0.11     0.00   0.14  -0.05     0.05   0.01   0.03
    36   1    -0.02  -0.04  -0.00     0.07   0.09   0.04    -0.11   0.16   0.13
    37   1     0.12  -0.17  -0.09     0.13  -0.00  -0.18     0.02   0.02  -0.03
    38   1    -0.10  -0.19  -0.07    -0.07  -0.10  -0.06    -0.06  -0.14   0.16
    39   1    -0.15   0.12  -0.10     0.12  -0.07   0.08     0.06   0.11  -0.12
    40   1    -0.03   0.03  -0.03    -0.09   0.06  -0.05     0.11  -0.12  -0.09
    41   1    -0.09   0.17   0.10     0.13  -0.02  -0.19    -0.01  -0.02   0.03
    42   1    -0.19  -0.04  -0.13     0.01   0.16  -0.04    -0.12  -0.03  -0.08
    43   1    -0.02  -0.06  -0.11    -0.05   0.11   0.03     0.08  -0.08  -0.02
    44   1    -0.13   0.04   0.02    -0.04   0.09   0.02    -0.02   0.09   0.06
    45   6     0.11   0.02   0.07     0.03  -0.08  -0.02    -0.01  -0.00  -0.01
    46   1     0.17   0.12   0.06     0.04  -0.08  -0.03    -0.02   0.02   0.03
    47   1     0.15  -0.04   0.15     0.04  -0.07  -0.04     0.03  -0.02  -0.03
    48   6     0.06  -0.08  -0.07    -0.08   0.01   0.13    -0.02   0.01   0.04
    49   1     0.09  -0.13  -0.09    -0.17   0.10   0.16    -0.01   0.08   0.10
    50   1     0.02  -0.04  -0.14    -0.06  -0.07   0.23    -0.07  -0.06   0.06
    51   6    -0.07   0.08   0.07    -0.09   0.00   0.12     0.04  -0.01  -0.04
    52   1    -0.14   0.01   0.08    -0.15  -0.10   0.16     0.01   0.06  -0.14
    53   1    -0.11   0.13   0.10    -0.12   0.10   0.19     0.14  -0.07  -0.04
                     13                     14                     15
                      A                      A                      A
 Frequencies --    128.5068               131.8702               141.6824
 Red. masses --      1.8252                 1.8343                 1.9522
 Frc consts  --      0.0178                 0.0188                 0.0231
 IR Inten    --      0.0081                 0.0002                 0.0003
  Atom  AN      X      Y      Z        X      Y      Z        X      Y      Z
     1  15    -0.00  -0.00   0.00    -0.00  -0.00  -0.00    -0.00  -0.00  -0.00
     2   6     0.00  -0.00  -0.01     0.02  -0.01  -0.03     0.04  -0.01  -0.07
     3   6    -0.07   0.01   0.11    -0.02  -0.02   0.04     0.02  -0.04  -0.05
     4   6     0.05  -0.00  -0.08     0.01  -0.00  -0.01    -0.03  -0.01   0.03
     5   6    -0.00   0.00   0.01    -0.02   0.01   0.03    -0.05   0.01   0.06
     6   6    -0.07   0.01   0.09     0.01   0.02  -0.03    -0.04   0.03   0.01
     7   6     0.05   0.00  -0.06    -0.00   0.01   0.01     0.01   0.01  -0.03
     8   6    -0.00   0.01  -0.01    -0.03  -0.01  -0.02    -0.05  -0.01  -0.03
     9   6     0.02   0.02   0.01    -0.12  -0.03  -0.08     0.09   0.02   0.06
    10   6    -0.01  -0.00  -0.02     0.09   0.02   0.06    -0.03  -0.01  -0.02
    11   6     0.01  -0.01   0.00    -0.07  -0.02  -0.05     0.00   0.00   0.00
    12   6    -0.04  -0.01   0.05    -0.01  -0.02   0.00    -0.05  -0.03   0.01
    13   6    -0.03  -0.01   0.06    -0.01   0.01  -0.01    -0.01   0.01  -0.06
    14   6     0.02  -0.03  -0.00     0.04   0.01   0.03     0.10   0.03   0.07
    15   1     0.09  -0.08  -0.04     0.08  -0.06  -0.04     0.06  -0.05  -0.08
    16   1    -0.02   0.08  -0.11     0.02   0.04  -0.08     0.06   0.03  -0.08
    17   1    -0.17   0.20   0.22    -0.07   0.03   0.05     0.01  -0.12  -0.11
    18   1    -0.12  -0.18   0.25    -0.02  -0.07   0.09     0.07   0.04  -0.07
    19   1     0.05  -0.09  -0.15     0.04  -0.03  -0.02     0.02   0.01   0.07
    20   1     0.09   0.09  -0.12     0.02   0.02  -0.03    -0.06  -0.03   0.02
    21   1     0.05   0.08  -0.02    -0.04  -0.03   0.06    -0.06  -0.03   0.10
    22   1     0.01  -0.07  -0.05    -0.03   0.06   0.06    -0.07   0.06   0.08
    23   1    -0.10  -0.15   0.22     0.04   0.06  -0.04    -0.01  -0.01   0.07
    24   1    -0.19   0.17   0.16     0.01  -0.01  -0.06    -0.11   0.06   0.00
    25   1     0.04   0.06  -0.13    -0.01  -0.01   0.02    -0.01   0.00  -0.05
    26   1     0.13  -0.05  -0.07     0.01   0.03   0.03     0.05   0.02  -0.00
    27   1    -0.02  -0.02  -0.01     0.03   0.06  -0.04    -0.13  -0.12  -0.01
    28   1    -0.01   0.02  -0.03     0.00  -0.05   0.06    -0.09   0.07  -0.14
    29   1     0.05  -0.01   0.03    -0.29   0.15  -0.17     0.17  -0.08   0.17
    30   1     0.04   0.05   0.01    -0.19  -0.27  -0.16     0.18   0.17   0.06
    31   1    -0.02   0.01  -0.03     0.18  -0.05   0.04    -0.06   0.04  -0.06
    32   1    -0.01  -0.02  -0.02     0.08   0.11   0.13    -0.06  -0.07  -0.02
    33   1     0.02  -0.03   0.02    -0.20   0.10  -0.09     0.04  -0.07   0.10
    34   1     0.02   0.02   0.01    -0.11  -0.18  -0.11     0.07   0.10  -0.01
    35   1    -0.00  -0.02  -0.01    -0.04  -0.01  -0.03    -0.09  -0.02  -0.06
    36   1    -0.13   0.10   0.09    -0.02  -0.05  -0.03    -0.11  -0.02  -0.02
    37   1     0.00  -0.02   0.00    -0.03  -0.03   0.04    -0.05  -0.05   0.06
    38   1    -0.06  -0.13   0.14     0.00   0.01  -0.01    -0.03  -0.04   0.04
    39   1    -0.07  -0.15   0.16    -0.01  -0.03   0.03     0.02   0.05  -0.07
    40   1    -0.10   0.14   0.14    -0.06   0.05  -0.00    -0.05  -0.03  -0.11
    41   1     0.01  -0.01  -0.01     0.02   0.03  -0.05     0.02   0.05  -0.08
    42   1     0.02  -0.04   0.02     0.23   0.05   0.15     0.35   0.10   0.23
    43   1     0.01  -0.02  -0.01    -0.12   0.13   0.06    -0.12   0.17   0.14
    44   1     0.03  -0.04  -0.02     0.06  -0.15  -0.11     0.14  -0.16  -0.12
    45   6    -0.00   0.01  -0.01     0.12   0.03   0.08     0.02   0.01   0.02
    46   1    -0.00  -0.01  -0.02     0.16   0.23   0.17     0.04  -0.02  -0.02
    47   1    -0.02   0.02  -0.00     0.28  -0.11   0.12    -0.02   0.03   0.04
    48   6     0.04   0.01  -0.08    -0.01  -0.02   0.01    -0.07  -0.04   0.08
    49   1     0.05  -0.12  -0.16    -0.03  -0.03   0.00    -0.11   0.07   0.15
    50   1     0.12   0.13  -0.12     0.00  -0.01   0.02    -0.11  -0.15   0.14
    51   6     0.05   0.01  -0.07     0.01   0.02  -0.03     0.03   0.03  -0.09
    52   1     0.03   0.10  -0.18     0.02   0.03  -0.03     0.04   0.11  -0.16
    53   1     0.16  -0.08  -0.09     0.01   0.00  -0.04     0.10  -0.06  -0.12
                     16                     17                     18
                      A                      A                      A
 Frequencies --    154.2806               180.1458               184.3689
 Red. masses --      3.1243                 1.1697                 4.0404
 Frc consts  --      0.0438                 0.0224                 0.0809
 IR Inten    --      0.2144                 0.0097                 0.2064
  Atom  AN      X      Y      Z        X      Y      Z        X      Y      Z
     1  15    -0.00  -0.03   0.01    -0.00   0.00  -0.00     0.01  -0.03  -0.00
     2   6    -0.07   0.03   0.01     0.03  -0.01  -0.05    -0.06  -0.00  -0.09
     3   6    -0.02   0.12  -0.04    -0.01  -0.01   0.01    -0.11  -0.01  -0.07
     4   6    -0.06   0.03  -0.03    -0.00  -0.00   0.01    -0.16  -0.06  -0.09
     5   6     0.00   0.05   0.06    -0.03   0.01   0.04     0.10   0.03   0.02
     6   6    -0.00   0.13  -0.02     0.01   0.01  -0.01     0.10   0.04   0.07
     7   6     0.04   0.06   0.03     0.00   0.00  -0.00     0.16   0.02   0.12
     8   6    -0.00  -0.05   0.03    -0.04  -0.01  -0.03     0.01  -0.01  -0.01
     9   6     0.02  -0.12   0.01    -0.01  -0.00  -0.01    -0.01   0.04  -0.00
    10   6    -0.01  -0.04   0.03     0.00   0.00   0.01     0.01   0.03  -0.02
    11   6     0.03   0.07  -0.07    -0.01  -0.00  -0.00    -0.01  -0.03   0.03
    12   6    -0.02  -0.11  -0.01    -0.01  -0.00   0.00     0.16   0.00   0.12
    13   6     0.05  -0.08   0.04    -0.00   0.00  -0.01    -0.15  -0.08  -0.10
    14   6     0.05  -0.13  -0.02     0.05   0.01   0.03    -0.03   0.04   0.02
    15   1    -0.15   0.07   0.00     0.07  -0.06  -0.07    -0.04  -0.05  -0.11
    16   1    -0.11  -0.02   0.03     0.04   0.05  -0.10    -0.06   0.03  -0.12
    17   1     0.04   0.10  -0.03    -0.04   0.02   0.02    -0.12  -0.01  -0.08
    18   1    -0.01   0.15  -0.06     0.01  -0.03   0.05    -0.09  -0.02  -0.05
    19   1    -0.13   0.02  -0.07     0.02  -0.01   0.01    -0.17  -0.07  -0.10
    20   1    -0.11   0.00  -0.05    -0.01   0.00  -0.01    -0.18  -0.07  -0.11
    21   1     0.01   0.01   0.12    -0.05  -0.05   0.08     0.12   0.07  -0.00
    22   1     0.02   0.11   0.13    -0.06   0.06   0.07     0.13  -0.01   0.00
    23   1     0.00   0.16  -0.05     0.04   0.04  -0.02     0.09   0.03   0.06
    24   1    -0.02   0.09  -0.07     0.01  -0.03  -0.04     0.11   0.05   0.08
    25   1     0.08   0.05   0.08    -0.01  -0.01  -0.00     0.17   0.02   0.13
    26   1     0.10   0.08   0.08     0.01   0.01   0.01     0.17   0.02   0.13
    27   1    -0.02  -0.05   0.06    -0.07  -0.06  -0.04     0.02  -0.01  -0.03
    28   1    -0.02  -0.05   0.06    -0.08   0.03  -0.06     0.02  -0.01  -0.03
    29   1     0.03  -0.12  -0.00    -0.02  -0.00   0.02    -0.02   0.04   0.01
    30   1     0.03  -0.12   0.00     0.01  -0.00  -0.02    -0.02   0.04   0.01
    31   1    -0.04  -0.03   0.07     0.01   0.00  -0.01     0.02   0.02  -0.04
    32   1    -0.04  -0.03   0.07    -0.00  -0.00   0.01     0.02   0.02  -0.04
    33   1     0.07   0.06  -0.13    -0.01  -0.00   0.01    -0.04  -0.03   0.07
    34   1     0.08   0.06  -0.13     0.00   0.00  -0.01    -0.04  -0.03   0.07
    35   1    -0.02   0.18  -0.04    -0.02  -0.01  -0.01     0.01  -0.09   0.02
    36   1    -0.09  -0.15  -0.08    -0.02  -0.03  -0.03     0.17   0.01   0.13
    37   1     0.03  -0.21   0.07    -0.03  -0.01   0.04     0.17   0.01   0.10
    38   1    -0.07  -0.10  -0.06     0.02   0.03   0.00     0.16  -0.00   0.12
    39   1     0.11  -0.05   0.06     0.01  -0.02   0.02    -0.15  -0.08  -0.09
    40   1     0.15  -0.08   0.08    -0.04   0.02  -0.01    -0.17  -0.08  -0.10
    41   1    -0.00  -0.22   0.04     0.02   0.01  -0.04    -0.15  -0.08  -0.11
    42   1     0.02  -0.21   0.04    -0.38  -0.10  -0.25    -0.02   0.09  -0.02
    43   1     0.09  -0.14  -0.06     0.46  -0.34   0.06    -0.05   0.04   0.05
    44   1     0.09  -0.13  -0.06     0.09   0.48   0.30    -0.05   0.05   0.06
    45   6     0.02  -0.12   0.01     0.02   0.01   0.01    -0.01   0.06  -0.01
    46   1     0.04  -0.12  -0.00     0.03   0.03   0.02    -0.01   0.06  -0.01
    47   1     0.03  -0.12  -0.00     0.04  -0.02   0.02    -0.00   0.06  -0.01
    48   6    -0.03   0.13  -0.04    -0.01  -0.01   0.02    -0.14  -0.02  -0.07
    49   1    -0.00   0.13  -0.03    -0.02   0.01   0.03    -0.14  -0.01  -0.06
    50   1    -0.02   0.13  -0.03    -0.02  -0.02   0.04    -0.14  -0.03  -0.06
    51   6     0.00   0.14  -0.02     0.01   0.01  -0.02     0.12   0.04   0.10
    52   1    -0.01   0.14  -0.04     0.02   0.02  -0.03     0.11   0.03   0.11
    53   1    -0.01   0.12  -0.05     0.02  -0.01  -0.03     0.10   0.05   0.10
                     19                     20                     21
                      A                      A                      A
 Frequencies --    200.2466               202.8806               219.1879
 Red. masses --      3.1657                 2.6149                 2.8836
 Frc consts  --      0.0748                 0.0634                 0.0816
 IR Inten    --      1.3485                 0.4655                 0.4266
  Atom  AN      X      Y      Z        X      Y      Z        X      Y      Z
     1  15    -0.03   0.11  -0.00     0.02   0.01   0.02    -0.01  -0.06   0.04
     2   6    -0.05   0.07   0.10    -0.03   0.02   0.05    -0.05  -0.04   0.08
     3   6    -0.04  -0.04   0.00    -0.04  -0.06   0.00     0.00   0.01   0.02
     4   6     0.01  -0.05  -0.00    -0.01  -0.07  -0.01    -0.00   0.02  -0.01
     5   6    -0.10   0.06   0.08     0.03  -0.02  -0.04    -0.04  -0.04   0.09
     6   6     0.03  -0.03   0.05    -0.03   0.04  -0.04    -0.02   0.00   0.00
     7   6     0.02  -0.06   0.00    -0.04   0.05  -0.02     0.00   0.03  -0.01
     8   6    -0.03   0.07  -0.00     0.17   0.05   0.11     0.03  -0.03  -0.04
     9   6     0.04  -0.08  -0.04     0.01  -0.00   0.00     0.03   0.01  -0.05
    10   6     0.02  -0.09   0.01    -0.01  -0.01  -0.01     0.09  -0.01  -0.12
    11   6     0.07   0.06  -0.13     0.02   0.00   0.00     0.08  -0.06  -0.09
    12   6     0.06   0.07   0.06    -0.07  -0.05  -0.06    -0.03  -0.03  -0.01
    13   6    -0.08   0.03  -0.04    -0.10   0.02  -0.06     0.03  -0.01   0.03
    14   6     0.01   0.03  -0.04     0.13   0.04   0.09    -0.13   0.16   0.14
    15   1    -0.08   0.18   0.16    -0.03   0.08   0.09    -0.12   0.04   0.11
    16   1    -0.04  -0.02   0.20    -0.02  -0.02   0.10    -0.09  -0.13   0.14
    17   1    -0.02  -0.06  -0.01    -0.04  -0.06   0.00     0.07  -0.00   0.04
    18   1    -0.10  -0.04  -0.06    -0.08  -0.07  -0.03    -0.00   0.03  -0.01
    19   1     0.02  -0.04   0.01     0.01  -0.05   0.00    -0.02   0.02  -0.02
    20   1     0.05  -0.04   0.02     0.03  -0.05   0.01    -0.01   0.02  -0.01
    21   1    -0.17  -0.05   0.13     0.06   0.03  -0.05    -0.06  -0.12   0.17
    22   1    -0.19   0.16   0.10     0.08  -0.05  -0.04    -0.08   0.05   0.15
    23   1     0.11   0.01   0.08    -0.07   0.03  -0.07     0.00   0.04  -0.01
    24   1     0.04  -0.06   0.03    -0.03   0.04  -0.04    -0.05  -0.04  -0.05
    25   1    -0.02  -0.06  -0.03    -0.00   0.05   0.01     0.01   0.02  -0.00
    26   1    -0.00  -0.05  -0.01    -0.01   0.05  -0.01     0.02   0.03   0.01
    27   1    -0.08   0.07   0.04     0.26   0.25   0.14     0.04  -0.03  -0.05
    28   1    -0.07   0.09   0.04     0.29  -0.10   0.24     0.04  -0.03  -0.06
    29   1     0.07  -0.08  -0.08     0.00   0.05  -0.11     0.02   0.01  -0.03
    30   1     0.08  -0.08  -0.09    -0.08  -0.07   0.05     0.02   0.01  -0.04
    31   1    -0.02  -0.08   0.05    -0.02  -0.01   0.02     0.10  -0.02  -0.14
    32   1    -0.01  -0.07   0.06     0.01   0.01  -0.02     0.10  -0.02  -0.14
    33   1     0.14   0.05  -0.22     0.02   0.04  -0.08     0.07  -0.05  -0.08
    34   1     0.14   0.05  -0.23    -0.05  -0.05   0.05     0.07  -0.05  -0.08
    35   1    -0.00   0.22  -0.09     0.10   0.03   0.06     0.09  -0.08  -0.10
    36   1     0.10   0.06   0.07    -0.11  -0.06  -0.08    -0.06  -0.07  -0.06
    37   1    -0.03   0.16   0.05    -0.00  -0.13  -0.04    -0.03  -0.07   0.05
    38   1     0.15   0.11   0.10    -0.13  -0.08  -0.10    -0.02   0.00  -0.03
    39   1    -0.16   0.03  -0.10    -0.18   0.00  -0.10     0.03   0.01   0.01
    40   1    -0.10   0.00  -0.07    -0.15   0.00  -0.09     0.09  -0.02   0.05
    41   1    -0.08   0.13   0.01    -0.08   0.13  -0.02    -0.01  -0.06   0.06
    42   1    -0.00  -0.02   0.00     0.09   0.03   0.06    -0.08   0.37  -0.05
    43   1     0.03   0.03  -0.06     0.21  -0.06   0.19    -0.22   0.18   0.27
    44   1     0.02   0.02  -0.06     0.21   0.18   0.09    -0.22   0.20   0.28
    45   6     0.04  -0.14   0.00    -0.04  -0.01  -0.03     0.06   0.03  -0.10
    46   1     0.04  -0.13   0.01    -0.05  -0.06  -0.04     0.06   0.03  -0.10
    47   1     0.03  -0.14   0.01    -0.07   0.02  -0.04     0.06   0.03  -0.10
    48   6     0.01  -0.08  -0.02    -0.00  -0.10  -0.02     0.00   0.04  -0.02
    49   1     0.03  -0.11  -0.04     0.01  -0.13  -0.04     0.00   0.01  -0.03
    50   1     0.04  -0.05  -0.04     0.01  -0.07  -0.04     0.01   0.05  -0.03
    51   6     0.05  -0.09   0.00    -0.05   0.07  -0.02     0.00   0.03  -0.02
    52   1     0.04  -0.06  -0.03    -0.05   0.05   0.01     0.01   0.05  -0.03
    53   1     0.07  -0.11  -0.01    -0.07   0.09  -0.01     0.03   0.02  -0.02
                     22                     23                     24
                      A                      A                      A
 Frequencies --    239.9000               245.1380               245.8216
 Red. masses --      1.9293                 1.1267                 1.1203
 Frc consts  --      0.0654                 0.0399                 0.0399
 IR Inten    --      0.0107                 0.0007                 0.0005
  Atom  AN      X      Y      Z        X      Y      Z        X      Y      Z
     1  15     0.00   0.00   0.00     0.00   0.00  -0.00     0.00  -0.00  -0.00
     2   6     0.07   0.00  -0.11    -0.01   0.00   0.01     0.01  -0.00  -0.01
     3   6     0.02  -0.00  -0.03    -0.00   0.00   0.01    -0.01   0.00   0.02
     4   6    -0.01  -0.01   0.02     0.00  -0.00  -0.01     0.04   0.00  -0.07
     5   6    -0.08  -0.00   0.11     0.01  -0.00  -0.02    -0.00   0.00   0.00
     6   6    -0.02   0.00   0.03    -0.02   0.00   0.02     0.00  -0.00   0.00
     7   6     0.01   0.01  -0.02     0.05   0.00  -0.07    -0.00  -0.00   0.00
     8   6     0.12   0.03   0.08    -0.01  -0.00  -0.00    -0.00  -0.00  -0.00
     9   6     0.03   0.01   0.02    -0.01  -0.00  -0.00     0.01   0.00   0.01
    10   6    -0.02  -0.01  -0.02     0.01   0.00   0.01    -0.03  -0.01  -0.02
    11   6     0.01   0.00   0.01    -0.01   0.00   0.00     0.00   0.00   0.01
    12   6    -0.01  -0.01   0.00    -0.01  -0.00   0.01     0.00   0.00   0.00
    13   6    -0.00   0.00  -0.01    -0.00  -0.00   0.00    -0.01  -0.00   0.01
    14   6    -0.11  -0.03  -0.08     0.01  -0.00   0.00    -0.00  -0.00  -0.00
    15   1     0.14  -0.16  -0.20    -0.01   0.01   0.02     0.04  -0.03  -0.02
    16   1     0.13   0.15  -0.22    -0.01  -0.01   0.02     0.01   0.03  -0.04
    17   1    -0.04   0.01  -0.04    -0.00   0.00   0.01    -0.03   0.01   0.02
    18   1     0.05  -0.02   0.02    -0.01   0.00   0.00    -0.00  -0.01   0.04
    19   1    -0.00   0.01   0.03     0.01  -0.01  -0.01     0.09  -0.08  -0.11
    20   1    -0.01  -0.02   0.03     0.01   0.01  -0.01     0.05   0.08  -0.13
    21   1    -0.10  -0.14   0.23     0.04   0.05  -0.05    -0.00  -0.00   0.01
    22   1    -0.19   0.14   0.17     0.03  -0.05  -0.05    -0.01   0.01   0.01
    23   1     0.02   0.04   0.04    -0.04  -0.02   0.02     0.00   0.00   0.00
    24   1    -0.05  -0.03  -0.02    -0.01   0.02   0.04    -0.00  -0.00  -0.00
    25   1     0.02   0.02  -0.03     0.08   0.09  -0.12    -0.00  -0.00   0.00
    26   1     0.03  -0.01  -0.02     0.10  -0.09  -0.11    -0.00   0.00   0.00
    27   1     0.18   0.21   0.12    -0.01  -0.01  -0.01    -0.01  -0.01   0.00
    28   1     0.24  -0.10   0.16    -0.01   0.00  -0.01    -0.01   0.01  -0.01
    29   1     0.03   0.03  -0.05    -0.01  -0.00   0.00     0.01  -0.00   0.02
    30   1    -0.03  -0.03   0.05    -0.00  -0.00  -0.00     0.02   0.01   0.00
    31   1    -0.04   0.01  -0.03     0.02  -0.01   0.02    -0.05   0.02  -0.04
    32   1    -0.03  -0.03  -0.03     0.01   0.02   0.01    -0.05  -0.04  -0.02
    33   1     0.00   0.08  -0.16    -0.00  -0.04   0.08    -0.01   0.09  -0.17
    34   1    -0.11  -0.11   0.08     0.05   0.05  -0.03    -0.13  -0.13   0.09
    35   1     0.17   0.04   0.12    -0.07  -0.02  -0.04     0.18   0.05   0.13
    36   1    -0.04  -0.10  -0.09    -0.08  -0.38  -0.33     0.00   0.01   0.01
    37   1    -0.09  -0.02   0.12    -0.34  -0.00   0.46     0.01   0.00  -0.01
    38   1     0.07   0.08  -0.00     0.34   0.38  -0.02    -0.01  -0.01   0.00
    39   1     0.04  -0.04   0.07    -0.02   0.02  -0.04    -0.20   0.22  -0.37
    40   1    -0.10   0.05  -0.02     0.05  -0.02   0.00     0.42  -0.23   0.02
    41   1     0.06   0.01  -0.11    -0.03   0.00   0.05    -0.28   0.00   0.46
    42   1    -0.16  -0.04  -0.11     0.02  -0.00   0.01    -0.01  -0.01  -0.01
    43   1    -0.12   0.03  -0.21     0.01  -0.00   0.01     0.01  -0.01  -0.01
    44   1    -0.21  -0.11  -0.01     0.02  -0.00  -0.01    -0.00   0.00  -0.00
    45   6    -0.00  -0.00  -0.00    -0.01   0.00  -0.00     0.01   0.00   0.01
    46   1     0.02   0.00  -0.02    -0.02  -0.01   0.00     0.04   0.04   0.00
    47   1    -0.01  -0.00   0.02    -0.01   0.01  -0.02     0.03  -0.02   0.05
    48   6    -0.00  -0.01   0.01    -0.00   0.00   0.00    -0.02   0.00   0.03
    49   1     0.01   0.01   0.02    -0.01   0.00   0.00    -0.10   0.07   0.05
    50   1    -0.02  -0.02   0.01     0.00  -0.00   0.01    -0.00  -0.07   0.12
    51   6     0.00   0.01  -0.00    -0.03  -0.00   0.03     0.00  -0.00  -0.00
    52   1    -0.01   0.01  -0.02    -0.09  -0.10   0.07     0.00   0.00  -0.00
    53   1     0.03   0.01   0.01    -0.04   0.09   0.11     0.00  -0.01  -0.00
                     25                     26                     27
                      A                      A                      A
 Frequencies --    246.2394               316.3026               327.9651
 Red. masses --      1.1644                 2.9688                 2.8117
 Frc consts  --      0.0416                 0.1750                 0.1782
 IR Inten    --      0.0000                 3.5584                 0.6107
  Atom  AN      X      Y      Z        X      Y      Z        X      Y      Z
     1  15    -0.00  -0.00  -0.00    -0.09   0.02   0.14    -0.06  -0.01  -0.04
     2   6    -0.02  -0.00   0.03     0.05   0.01  -0.08     0.04  -0.15   0.03
     3   6     0.00   0.00  -0.00     0.01   0.01  -0.03     0.05  -0.10   0.03
     4   6    -0.02   0.00   0.02     0.01  -0.01   0.01    -0.07   0.10  -0.04
     5   6     0.02   0.00  -0.02     0.06   0.01  -0.08    -0.01   0.16  -0.01
     6   6     0.00  -0.00  -0.00     0.02   0.01  -0.03     0.01   0.12   0.01
     7   6     0.01  -0.00  -0.01    -0.01  -0.01  -0.00    -0.03  -0.13  -0.02
     8   6    -0.04  -0.01  -0.02    -0.04   0.10   0.02     0.06   0.01   0.04
     9   6     0.02   0.01   0.01    -0.00   0.06  -0.02     0.02   0.00   0.01
    10   6    -0.06  -0.02  -0.04     0.05  -0.07  -0.05    -0.00   0.00  -0.00
    11   6     0.01   0.00   0.01     0.09  -0.02  -0.12     0.00  -0.00   0.00
    12   6     0.00   0.00   0.00    -0.00   0.00  -0.00     0.04   0.06   0.03
    13   6     0.01  -0.00  -0.00     0.00   0.01  -0.00     0.06  -0.03   0.04
    14   6     0.02   0.01   0.02    -0.05  -0.11   0.12     0.05   0.01   0.03
    15   1    -0.04   0.04   0.05     0.10  -0.25  -0.24     0.06  -0.13   0.05
    16   1    -0.03  -0.05   0.06     0.17   0.26  -0.22     0.07  -0.12   0.04
    17   1     0.03  -0.01  -0.00    -0.02   0.01  -0.04     0.10  -0.07   0.07
    18   1    -0.01   0.01  -0.02     0.03  -0.00  -0.01     0.10  -0.07   0.06
    19   1    -0.04   0.04   0.04     0.01  -0.00   0.02    -0.09   0.08  -0.06
    20   1    -0.02  -0.03   0.05     0.01  -0.00   0.01    -0.10   0.08  -0.05
    21   1     0.03   0.04  -0.05     0.05   0.23  -0.30     0.02   0.15   0.02
    22   1     0.04  -0.04  -0.04     0.27  -0.21  -0.13     0.03   0.15   0.01
    23   1    -0.01  -0.01  -0.00    -0.00  -0.01  -0.03     0.07   0.12   0.05
    24   1     0.01   0.01   0.01     0.04   0.02   0.00     0.07   0.12   0.05
    25   1     0.01   0.01  -0.02    -0.01  -0.01  -0.00    -0.05  -0.12  -0.05
    26   1     0.01  -0.02  -0.02    -0.02  -0.01  -0.01    -0.06  -0.12  -0.04
    27   1    -0.08  -0.08  -0.03    -0.03   0.08   0.00     0.11   0.21   0.12
[...]
 00040,0.00029340,0.00063476,0.00089198,0.00000225,0.00000507,0.0000182
 9,0.00011660,-0.00008078,-0.00009230,-0.00077907,-0.00001222,-0.000170
 75,-0.00051550,0.00021038,0.00076504,-0.00167492,-0.00136621,0.0006167
 3,0.00064610,-0.00012022,0.00097564,-0.00352728,0.00112926,-0.00069225
 ,-0.00002867,-0.00000595,-0.00000057,0.00000381,-0.00001085,-0.0000132
 0,0.00000398,0.00001087,0.00001034,0.00000400,0.00000205,0.00000043,-0
 .00000056,0.00000246,0.00000264,0.00000096,0.00000017,-0.00000032,-0.0
 0001792,0.00008461,0.00000459,-0.00007200,0.00004351,0.00002229,0.0000
 0258,-0.00003105,0.00003238,-0.00001786,-0.00001323,-0.00002182,-0.000
 00830,-0.00000980,0.00000451,-0.00000458,-0.00000037,-0.00000555,-0.00
 000108,-0.00000498,-0.00000167,-0.00000112,0.00000238,0.00000105,0.000
 00263,0.00000121,-0.00000210,0.00000031,-0.00000058,-0.00000104,-0.000
 00004,0.00000090,-0.00000017,-0.00000201,0.00000052,0.00000114,0.00030
 153,-0.00016051,-0.00004042,0.00003809,-0.00011360,-0.00011660,0.00017
 726,0.00021488,0.00007253,-0.00001966,-0.00001385,0.00000642,-0.000009
 67,0.00000949,-0.00001263,0.00002232,0.00003077,-0.00002366,-0.0000083
 6,-0.00001512,0.00001424,-0.00000607,0.00001669,0.00000095,-0.00000395
 ,-0.00001151,-0.00000947,0.08536149,-0.08462309,-0.13834155,0.01418667
 ,-0.01441604,-0.01570636,-0.08961082,0.09505968,0.14881529,-0.00156437
 ,-0.00195344,-0.00020458,-0.00026815,0.00043884,-0.00039762,-0.0000079
 2,-0.00023124,0.00001397,-0.00000477,-0.00003417,0.00000151,-0.0203450
 2,0.00413330,-0.01464802,-0.12409381,0.03544492,-0.03360451,-0.1102658
 8,-0.04169446,-0.02350819,-0.00005653,0.00011039,-0.00028062,0.0000027
 8,0.00005096,-0.00008765,-0.00001331,-0.00000574,-0.00001271,0.0000047
 0,0.00001141,0.00000567,-0.01987265,-0.01626528,-0.01451635,-0.0000057
 1,0.00000814,-0.00000819,0.00003793,-0.00013335,0.00006784,0.00002972,
 0.00003761,0.00002661,0.00001809,-0.00001023,0.00001034,0.00000743,0.0
 0000854,-0.00002337,-0.00000220,0.00000834,0.00000772,0.00000140,-0.00
 000045,-0.00000175,-0.00000222,0.00000203,0.00000189,0.00178103,0.0010
 4497,0.00144371,0.00082195,0.00130373,0.00008812,-0.01560017,0.0106818
 9,-0.01069646,0.00947345,-0.00548166,0.00644643,0.00999306,0.01142127,
 0.00722201,-0.01059325,-0.01125645,-0.00780930,-0.00008702,0.00002829,
 0.00006028,-0.00007370,0.00000931,0.00010861,0.00001594,0.00000366,-0.
 00001693,0.00003171,0.00000408,0.00001961,-0.00000087,-0.00000115,0.00
 000018,0.00000715,0.00000208,0.00001437,-0.00000124,-0.00000427,-0.000
 00135,0.00000309,-0.00000573,0.00000065,0.00000150,-0.00000078,-0.0000
 0529,0.00167247,-0.00041416,0.00137524,-0.00261090,0.00217170,-0.00209
 095,0.00072266,-0.00094563,0.00018192,-0.00000064,0.00000132,0.0000014
 1,0.00000012,0.,0.00000031,-0.00000045,-0.00000338,-0.00000048,0.00003
 577,0.00003277,0.00002292,0.00002569,0.00032880,-0.00026468,0.00011855
 ,0.00016877,-0.00000410,0.00002184,0.00002064,0.00003696,0.00000966,-0
 .00001606,0.00000001,-0.00000366,-0.00000212,-0.00000094,-0.00004044,0
 .00007601,-0.00003234,0.00000140,0.00000100,0.00000472,0.00000085,0.00
 000047,0.00000259,0.49422500,-0.00208903,-0.00593147,-0.00133322,-0.00
 218634,0.00199312,-0.00159237,-0.00013624,-0.00139203,-0.00007785,0.00
 000080,-0.00027174,0.00000373,-0.01785335,0.00962273,-0.01321144,0.037
 66981,-0.10172663,0.02756133,-0.04075343,-0.12978876,-0.03070082,0.000
 04964,-0.00010192,-0.00028060,-0.00005228,0.00023916,-0.00010945,-0.00
 005278,0.00009538,-0.00005403,-0.00000402,-0.00003620,0.00003586,0.007
 02166,0.01215639,0.00534869,-0.00006927,0.00009482,-0.00004387,-0.0002
 6543,0.00025169,0.00006875,0.00011277,0.00012612,0.00007469,0.00011454
 ,0.00010655,0.00003996,0.00002582,0.00003266,-0.00001820,-0.00002704,0
 .00003883,0.00002800,0.00000266,0.00000867,-0.00000357,-0.00000385,0.0
 0001001,0.00000458,-0.00088790,0.00098737,-0.00019914,-0.00042913,0.00
 091402,-0.00078785,0.01477411,-0.01000452,0.01047995,0.01463980,-0.010
 21502,0.01108071,-0.01257300,-0.01495347,-0.00909858,-0.01247246,-0.01
 522641,-0.00978934,0.00002633,0.00019010,0.00019828,-0.00011965,0.0002
 9294,0.00009024,0.00008279,0.00001746,-0.00001629,0.00000005,-0.000066
 13,-0.00000127,0.00001035,0.00000245,0.00000097,0.00001755,-0.00001748
 ,0.00003178,0.00000038,0.00001184,-0.00000258,0.00001120,-0.00000618,-
 0.00000142,-0.00001729,0.00000915,0.00001437,0.00086866,0.00047250,0.0
 0051480,0.00385687,-0.00137573,0.00284142,0.00071052,0.00046317,0.0006
 6733,0.00001116,-0.00000913,-0.00000075,0.00000417,-0.00000978,0.00001
 119,-0.00004029,-0.00003241,-0.00002434,-0.00006174,-0.00001820,0.0000
 4702,0.00003519,0.00018507,-0.00020738,0.00020261,0.00017676,-0.000074
 44,-0.00000903,-0.00013941,0.00004231,0.00002350,-0.00001133,0.0000105
 0,-0.00000906,0.00004194,0.00001238,-0.00029794,0.00049638,-0.00018375
 ,-0.00000282,-0.00001545,0.00002068,0.00001979,-0.00000896,-0.00000762
 ,-0.00745497,0.52522788,-0.00016900,-0.00149009,-0.00137867,-0.0004241
 9,0.00040356,0.00000737,0.00001686,-0.00020710,-0.00003304,0.00000117,
 -0.00003168,-0.00000459,-0.01474078,0.00296528,-0.01140103,-0.03372494
 ,0.02599881,-0.10277188,-0.02344463,-0.03137405,-0.09690302,0.00014011
 ,-0.00032080,0.00013704,-0.00001543,0.00007103,0.00013939,0.00002934,-
 0.00004580,0.00006426,-0.00000112,0.00001933,-0.00002681,-0.01425689,-
 0.01192062,-0.01121539,-0.00001015,0.00000741,-0.00000092,-0.00029359,
 0.00026384,-0.00007273,0.00001124,-0.00001886,0.00000669,0.00004364,0.
 00004431,-0.00000489,0.00001084,0.00000609,0.00000135,-0.00002753,0.00
 001150,0.00001907,0.00000050,0.00000279,-0.00000265,-0.00000181,0.0000
 0074,0.00000257,-0.00025624,0.00111486,0.00039571,0.00176497,0.0006087
 2,0.00132183,0.01425905,-0.00906105,0.01081644,-0.01846464,0.01289032,
 -0.01414333,-0.01409859,-0.01541839,-0.01067319,0.01321246,0.01518277,
 0.01026752,0.00014531,0.00017983,0.00007070,-0.00008681,0.00048307,-0.
 00004344,0.00008227,0.00001847,-0.00000524,-0.00006737,-0.00015090,0.0
 0009179,0.00001034,0.00000972,-0.00000882,-0.00001888,-0.00000031,-0.0
 0002203,-0.00000068,-0.00000135,0.00000946,-0.00000785,0.00000379,0.00
 000145,0.00001505,-0.00000408,-0.00001166,-0.00007607,-0.00086051,0.00
 024784,-0.00207514,0.00159580,-0.00127917,0.00165679,-0.00014012,0.001
 19129,0.00000087,-0.00000055,-0.00000013,0.00000116,0.00000064,-0.0000
 0097,-0.00000176,-0.00000331,-0.00000089,-0.00002410,-0.00001076,0.000
 02640,0.00003018,-0.00015800,0.00004812,-0.00001058,-0.00004177,-0.000
 12038,-0.00005710,0.00000570,-0.00000794,0.00001203,0.00000659,-0.0000
 0940,-0.00000396,0.00003921,0.00002882,-0.00005226,0.00006271,-0.00001
 127,0.00000265,-0.00000208,-0.00000172,0.00000727,0.00000387,-0.000000
 13,-0.06716657,-0.00575445,0.53476226,0.00021859,0.00025875,0.00007570
 ,0.00003670,-0.00001038,-0.00000607,-0.00001903,-0.00000635,0.00000010
 ,-0.00000165,-0.00000183,0.00000034,0.00075199,0.00053993,0.00120904,-
 0.01591674,0.01418012,0.01342588,0.01049658,-0.01211290,-0.01350942,0.
 00007730,0.00005981,0.00011807,0.00005138,-0.00007448,0.00002567,0.000
 01067,0.00000060,-0.00000245,-0.00000050,-0.00000507,-0.00000076,0.001
 55375,-0.00056471,-0.00003737,-0.00000042,0.00000175,0.00000054,0.0000
 4603,-0.00001426,-0.00000667,-0.00001270,0.00000906,0.00000595,-0.0000
 1839,-0.00001461,-0.00002745,0.00000158,0.00000058,0.00000306,0.000018
 79,-0.00000725,0.00000007,-0.00000001,0.00000043,0.00000078,0.00000337
 ,-0.00000189,-0.00000124,-0.00034936,-0.00056598,-0.00072178,-0.000096
 01,0.00004579,0.00004770,-0.00261567,0.00199334,-0.00319813,0.00104115
 ,-0.00042704,-0.00021952,-0.00195088,-0.00297069,-0.00253146,0.0008440
 7,0.00067435,0.00043935,-0.00002228,-0.00009822,-0.00007649,0.00004828
 ,-0.00017430,0.00000179,-0.00004346,-0.00000208,-0.00000771,0.00002987
 ,0.00006071,-0.00003824,-0.00000681,-0.00000376,0.00000037,0.00000005,
 0.00000565,-0.00000853,0.00000151,-0.00000097,-0.00000208,-0.00000224,
 0.00000348,-0.00000157,-0.00000312,0.,0.00000538,-0.00010034,0.0000734
 2,0.00001700,0.00015759,-0.00001146,0.00022952,-0.00019749,0.00026035,
 0.00034197,0.00000059,-0.00000118,-0.00000201,-0.00000084,0.00000039,0
 .00000044,-0.00000014,-0.00000073,0.00000016,-0.00001351,0.00000614,-0
 .00004104,-0.00001860,-0.00001921,0.00004918,-0.00000579,-0.00001780,-
 0.00000173,0.00001029,0.00001353,-0.00001930,-0.00001571,0.00000718,-0
 .00000005,0.00000617,-0.00002277,-0.00000648,0.00000274,0.00000498,0.0
 0000022,-0.00000260,0.00000102,0.00000162,0.00000013,-0.00000460,-0.00
 000610,-0.12149910,0.07810057,0.08385776,0.13527525,-0.00003527,-0.000
 06623,-0.00006464,0.00001337,-0.00002516,0.00006145,0.00001132,0.00002
 396,-0.00000779,0.00000059,0.00000688,-0.00000252,-0.00099367,0.000543
 64,-0.00012161,0.00937896,-0.00998381,-0.00846148,0.01136277,-0.014603
 55,-0.01555289,-0.00008138,-0.00006555,-0.00006026,-0.00000470,0.00003
 034,0.00000733,0.00000141,-0.00000357,0.00001076,-0.00000294,0.0000010
 9,-0.00000509,0.00084432,0.00073950,0.00100147,0.00000196,-0.00000320,
 0.00000091,-0.00002648,-0.00000018,0.00001509,-0.00000706,-0.00000662,
 -0.00000229,0.00000754,0.00001173,0.00000078,0.00000060,-0.00000380,0.
 00000254,-0.00000593,0.00000194,0.00000297,0.00000029,-0.00000123,0.00
 000078,-0.00000144,0.00000067,0.00000087,0.00030297,0.00058166,0.00025
 952,0.00001920,0.00003606,0.00012979,0.00196992,-0.00074265,0.00159411
 ,-0.00038337,0.00005949,-0.00037501,-0.00296106,-0.00238134,-0.0017640
 3,0.00051679,0.00036555,0.00061843,0.00000695,0.00005020,0.00003449,-0
 .00001506,0.00009227,-0.00001704,0.00001963,0.00000651,-0.00000015,-0.
 00001065,-0.00003773,0.00002148,0.00000480,0.00000400,-0.00000121,-0.0
 0000233,-0.00000415,-0.00000084,-0.00000053,0.00000236,0.00000264,0.00
 000051,-0.00000029,0.00000193,0.00000263,0.00000025,-0.00000338,-0.000
 11630,0.00004472,0.00003411,-0.00006686,0.00001959,0.00036356,-0.00061
 719,0.00061697,-0.00016579,-0.00000071,0.00000135,0.00000058,-0.000000
 28,-0.00000011,-0.00000004,0.00000161,0.00000089,0.00000060,0.00002576
 ,0.00000612,0.00003753,0.00003524,-0.00001503,-0.00002422,-0.00001986,
 0.00000274,0.00000975,-0.00001814,-0.00001524,-0.00000091,0.00000776,0
 .00000113,0.00000188,-0.00000087,0.00001679,0.00000562,0.00000358,-0.0
 0001214,0.00000380,-0.00000004,-0.00000070,0.00000016,-0.00000015,0.00
 000363,0.00000190,0.07806523,-0.12961001,-0.08570775,-0.08657008,0.142
 77503,0.00021443,0.00033215,0.00039488,0.00008775,-0.00006639,0.000021
 76,0.00000261,0.00004534,0.00001151,0.00000168,0.00000629,0.00000126,0
 .00017264,0.00077833,0.00104494,-0.01223131,0.01119603,0.01012336,0.00
 768871,-0.00931387,-0.01045674,-0.00012371,0.00008705,-0.00008620,-0.0
 0001432,0.00001729,-0.00005703,-0.00001650,0.00001572,-0.00001998,-0.0
 0000081,-0.00000808,0.00000755,0.00119928,-0.00014291,0.00037510,0.000
 00175,-0.00000234,0.00000021,0.00004035,-0.00003236,0.00000433,0.00000
 288,-0.00000447,-0.00000387,-0.00000752,-0.00001476,0.00000588,-0.0000
 0200,0.00000018,-0.00000137,0.00000305,0.00000062,-0.00000275,-0.00000
 005,0.00000003,-0.00000037,-0.00000081,0.00000077,0.00000022,0.0003754
 1,-0.00020364,0.00009271,-0.00002048,-0.00010285,-0.00013259,-0.003576
 10,0.00193386,-0.00107915,0.00062782,-0.00042762,0.00109103,-0.0026284
 4,-0.00198650,-0.00012812,-0.00040766,0.00033407,0.00093613,-0.0000740
 9,-0.00004226,0.00000712,0.00003150,-0.00012877,-0.00000937,-0.0000117
 9,-0.00000326,0.00000797,0.00001324,0.00002255,-0.00002605,0.00000356,
 0.00000014,0.00000489,0.00000358,-0.00000736,0.00000901,-0.00000042,0.
 00000480,-0.00000100,0.00000402,-0.00000190,0.00000118,-0.00000379,0.0
 0000183,0.00000136,0.00003764,-0.00003819,-0.00007696,-0.00016793,0.00
 028494,0.00027107,-0.00082822,0.00033313,0.00003875,-0.00000049,0.0000
 0039,0.00000117,0.00000052,-0.00000017,-0.00000046,0.00000028,0.000001
 08,0.00000011,-0.00000260,-0.00000184,-0.00001230,-0.00001293,0.000013
 63,0.00000527,0.00000345,-0.00000100,0.00000487,0.00000119,-0.00001322
 ,-0.00000098,0.00000339,-0.00000127,0.00000656,0.00000167,0.00000105,-
 0.00000650,0.00001276,-0.00001537,0.00000107,0.00000113,0.00000044,-0.
 00000098,-0.00000233,-0.00000014,0.00000259,0.08486102,-0.08663707,-0.
 14205620,-0.08770185,0.09678702,0.15381202,0.00052202,0.00041169,0.000
 16232,0.00004847,-0.00005659,0.00007776,0.00000740,0.00003235,-0.00000
 523,0.00000216,0.00000432,-0.00000045,0.00141654,0.00087160,-0.0000225
 9,0.00807630,0.01522099,-0.01951650,-0.01005356,-0.01253841,0.01371997
 ,0.00000925,-0.00001174,0.00005589,-0.00003931,0.00003820,-0.00005721,
 -0.00000650,0.00000356,-0.00000288,-0.00000015,-0.00000181,0.00000264,
 0.00080129,-0.00033575,0.00144182,0.00000048,-0.00000136,0.00000134,-0
 .00008070,0.00007510,-0.00008220,-0.00000968,-0.00001751,-0.00000722,-
 0.00000475,-0.00000335,0.00000239,0.00000118,-0.00000079,0.00000640,-0
 .00000166,0.00000077,-0.00000071,-0.00000006,0.00000032,0.00000013,-0.
 00000063,0.00000028,0.00000005,-0.00011560,-0.00010281,-0.00000241,-0.
 00007656,-0.00035448,0.00025965,0.00118416,-0.00053025,0.00057716,-0.0
 0316468,0.00248342,-0.00342620,0.00092908,0.00052274,-0.00043702,-0.00
 166706,-0.00272615,-0.00272130,-0.00000157,-0.00001426,0.00000220,0.00
 002417,-0.00002931,-0.00003150,0.00001229,-0.00000802,0.00001721,0.000
 01176,-0.00001777,0.00002289,0.00000258,0.00000097,0.00000117,-0.00000
 026,-0.00000242,0.00000535,-0.00000010,0.00000085,0.00000091,0.0000009
 3,-0.00000116,-0.00000037,0.00000101,0.00000058,-0.00000120,-0.0001475
 0,0.00038784,-0.00085713,0.00027195,0.00027494,-0.00020075,-0.00006461
 ,-0.00001598,0.00002659,-0.00000009,-0.00000005,0.00000045,0.00000037,
 -0.00000011,-0.00000052,0.00000003,0.00000064,-0.00000004,-0.00000453,
 -0.00001005,0.00000032,-0.00002368,-0.00013335,0.00010181,-0.00004596,
 -0.00007123,-0.00003528,0.00000178,-0.00001265,0.00001880,0.00000796,-
 0.00000565,-0.00000341,-0.00000008,0.00000327,-0.00000257,0.00000444,-
 0.00000982,0.00000775,0.00000020,-0.00000144,-0.00000181,-0.00000005,0
 .00000034,0.00000098,-0.09205093,-0.06052495,0.07426682,-0.00777102,-0
 .01066336,0.01243886,0.10199347,-0.00006823,-0.00004825,-0.00006094,0.
 00006232,-0.00004241,0.00000801,-0.00000035,0.00003515,0.00001242,-0.0
 0000169,0.00000888,0.00000147,-0.00042017,0.00057828,-0.00088933,-0.00
 527042,-0.01015159,0.01134959,-0.01144890,-0.01494093,0.01522069,0.000
 00648,-0.00001624,-0.00001127,0.00008375,-0.00008234,0.00011150,0.0000
 3550,-0.00002311,0.00003160,-0.00000338,0.00000451,-0.00001613,0.00121
 073,0.00074751,0.00053246,0.00000202,-0.00000342,0.00000206,-0.0000801
 9,-0.00003898,-0.00006589,0.00000239,0.00001369,0.00000820,-0.00000401
 ,-0.00000609,-0.00000575,-0.00000018,0.00000040,-0.00000627,0.00000369
 ,-0.00000550,0.00000046,0.00000018,0.00000042,-0.00000146,0.00000126,-
 0.00000162,-0.00000022,0.00013556,0.00003417,-0.00000960,0.00035031,0.
 00057744,0.00021462,-0.00045014,0.00005103,-0.00026128,0.00210832,-0.0
 0073561,0.00137950,0.00074774,0.00037132,0.00030094,-0.00250835,-0.002
 36882,-0.00238848,0.00001007,0.00001091,-0.00002576,-0.00001492,0.0000
 2639,0.00003005,-0.00001691,0.00001027,-0.00002781,-0.00000192,0.00002
 259,-0.00001879,-0.00000600,0.00000090,-0.00000554,-0.00000857,0.00001
 173,-0.00002195,0.00000305,-0.00000411,0.00000239,-0.00000804,0.000005
 62,-0.00000162,0.00000375,-0.00000183,0.00000059,-0.00036203,0.0006204
 8,-0.00054421,0.00032849,0.00002872,-0.00017423,-0.00000335,0.00004554
 ,-0.00011834,-0.00000004,-0.00000024,-0.00000042,0.00000019,0.00000131
 ,-0.00000085,0.00000116,0.00000108,0.00000110,0.00000558,0.00000426,-0
 .00000731,-0.00001324,0.00006732,-0.00004330,0.00003670,0.00004178,-0.
 00002449,-0.00000988,0.00002177,-0.00003266,-0.00001851,0.00001265,-0.
 00000296,0.00000586,-0.00001027,0.00000926,0.00000834,-0.00001556,0.00
 000366,0.00000172,0.00000388,-0.00000098,-0.00000045,-0.00000116,-0.00
 000103,-0.05970576,-0.13329681,0.10072364,0.00740269,0.01153523,-0.013
 00113,0.06786780,0.14689967,0.00004873,0.00014466,0.00017288,-0.000013
 70,0.00001994,-0.00001528,-0.00001645,-0.00002923,-0.00000550,-0.00000
 092,-0.00000562,-0.00000255,0.00099906,0.00026664,0.00040588,0.0058298
 6,0.01040250,-0.01382825,-0.00723118,-0.00926218,0.01040496,0.00003539
 ,0.00000654,0.00006126,-0.00004552,0.00002782,-0.00008599,-0.00001125,
 0.00001080,-0.00001504,0.00000117,-0.00000107,0.00000907,0.00021497,-0
 .00050929,0.00113861,-0.00000058,0.00000249,-0.00000104,0.00013998,-0.
 00002633,0.00006752,-0.00003267,-0.00000594,-0.00000025,0.00000072,0.0
 0000226,-0.00000973,0.00000618,-0.00000411,0.00001221,0.00000316,0.000
 00119,-0.00000024,0.00000045,-0.00000165,0.00000304,0.00000078,0.00000
 035,-0.00000056,0.00005912,0.00007073,-0.00013641,-0.00082754,-0.00043
 826,-0.00021169,-0.00027352,-0.00028901,0.00091282,-0.00305366,0.00134
 563,-0.00057652,0.00041570,0.00055335,0.00086110,-0.00260815,-0.002303
 58,-0.00042303,-0.00000941,-0.00002760,-0.00000811,0.00003611,-0.00006
 184,-0.00001799,-0.00001486,-0.00000883,0.00000643,0.00001322,0.000028
 73,0.00002174,-0.00000644,-0.00000320,-0.00000073,0.00000747,0.0000022
 3,0.00001146,-0.00000084,-0.00000301,-0.00000274,0.00000287,-0.0000026
 1,-0.00000075,-0.00000178,0.00000095,0.00000123,0.00029835,0.00015951,
 -0.00005814,0.00019859,-0.00009469,0.00014833,0.00000370,0.00008316,-0
 .00011398,0.00000004,0.00000028,-0.00000108,-0.00000164,-0.00000101,0.
 00000149,0.00000009,-0.00000124,-0.00000009,0.00001089,0.00000164,0.00
 000703,0.00000882,-0.00009849,0.00007236,-0.00006991,-0.00006671,0.000
 04608,0.00001575,-0.00000648,0.00003621,0.00000771,-0.00001125,-0.0000
 0367,-0.00000250,-0.00001048,-0.00000935,-0.00000272,0.00001357,-0.000
 00465,-0.00000512,-0.00000396,0.00000398,0.00000038,-0.00000034,-0.000
 00307,0.07335634,0.10098219,-0.16744583,0.00831786,0.01132508,-0.01412
 694,-0.07580311,-0.11217421,0.18270350\\0.00000014,0.,0.00000007,0.000
 00034,-0.00000012,0.00000002,0.00000039,-0.00000025,-0.00000019,0.0000
 0062,-0.00000049,-0.00000045,0.00000005,0.00000016,0.00000030,-0.00000
 012,0.00000026,0.00000039,-0.00000035,0.00000051,0.00000066,-0.0000001
 0,-0.00000003,-0.00000011,-0.00000022,0.,-0.00000017,-0.00000054,-0.00
 000002,-0.00000038,-0.00000072,-0.00000004,-0.00000056,-0.00000041,0.0
 0000063,0.00000084,0.00000080,-0.00000058,-0.00000050,0.00000026,-0.00
 000002,0.00000015,0.00000026,-0.00000010,0.,0.00000046,-0.00000010,0.0
 0000013,0.00000047,-0.00000027,-0.00000018,0.00000026,-0.00000027,-0.0
 0000031,0.00000071,-0.00000051,-0.00000043,0.00000049,-0.00000050,-0.0
 0000056,0.00000020,0.00000016,0.00000043,0.,0.00000016,0.00000028,-0.0
 0000027,0.00000026,0.00000027,-0.00000007,0.00000026,0.00000042,-0.000
 00050,0.00000049,0.00000053,-0.00000031,0.00000050,0.00000068,-0.00000
 004,-0.00000012,-0.00000023,-0.00000020,0.00000005,-0.00000006,-0.0000
 0011,-0.00000008,-0.00000022,-0.00000027,0.00000008,-0.00000004,-0.000
 00042,-0.00000009,-0.00000045,-0.00000058,0.00000007,-0.00000027,-0.00
 000084,0.00000003,-0.00000052,-0.00000067,-0.00000014,-0.00000070,-0.0
 0000081,-0.00000004,-0.00000061,-0.00000048,0.00000064,0.00000082,-0.0
 0000055,0.00000071,0.00000090,-0.00000028,0.00000065,0.00000097,0.0000
 0094,-0.00000057,-0.00000038,0.00000073,-0.00000056,-0.00000051,0.0000
 0085,-0.00000068,-0.00000064,0.00000041,0.,0.00000026,0.00000015,0.000
 00005,0.00000019,0.00000032,-0.00000011,0.,-0.00000040,-0.00000004,-0.
 00000035,-0.00000036,-0.00000013,-0.00000046,-0.00000052,0.00000004,-0
 .00000028,0.00000058,-0.00000035,-0.00000023,0.00000049,-0.00000033,-0
 .00000025,0.00000070,-0.00000034,-0.00000013,-0.00000020,0.00000039,0.
 00000057,-0.00000003,0.00000041,0.00000070,-0.00000023,0.00000040,0.00
 000055\\\@


 WISDOM IS KNOWING WHAT TO DO,
 SKILL IS KNOWING HOW TO DO IT,
 AND VIRTUE IS NOT DOING IT.
 Job cpu time:       1 days  6 hours  8 minutes  2.7 seconds.
 File lengths (MBytes):  RWF=   1575 Int=      0 D2E=      0 Chk=     22 Scr=      1
 Normal termination of Gaussian 09 at Mon Nov 30 20:29:49 2020.
